<?xml version="1.0"?>
<VTKFile type="UnstructuredGrid"  byte_order="LittleEndian">
<UnstructuredGrid>
<Piece NumberOfPoints="17122" NumberOfCells=" 35292">
<Points>
<DataArray type="Float32" NumberOfComponents="3" format="ascii">
0.000000 40.000000 0.000000 0.307692 40.000000 0.000000 0.000000 39.692307 0.000000 0.403846 39.750000 0.000000 0.615385 40.000000 0.000000 0.923077 40.000000 0.000000 0.000000 39.384617 0.000000 0.250000 39.442307 0.000000 0.500000 39.500000 0.000000 0.707692 39.750000 0.000000 0.000000 39.076923 0.000000 1.230769 40.000000 0.000000 1.011538 39.750000 0.000000 0.250000 39.138462 0.000000 0.500000 39.200001 0.000000 0.800000 39.500000 0.000000 0.250000 38.834614 0.000000 0.000000 38.769230 0.000000 1.538462 40.000000 0.000000 1.100000 39.500000 0.000000 1.315385 39.750000 0.000000 1.846154 40.000000 0.000000 2.153846 40.000000 0.000000 3.076923 40.000000 0.000000 2.769231 40.000000 0.000000 2.461539 40.000000 0.000000 0.500000 38.900002 0.000000 0.725000 39.049999 0.000000 0.950000 39.200001 0.000000 0.500000 38.599998 0.000000 0.250000 38.530769 0.000000 0.000000 38.461540 0.000000 3.384615 40.000000 0.000000 3.292308 39.750000 0.000000 3.692308 40.000000 0.000000 1.175000 39.275002 0.000000 1.619231 39.750000 0.000000 1.400000 39.500000 0.000000 1.848077 39.750000 0.000000 2.076923 39.750000 0.000000 2.380769 39.750000 0.000000 2.988461 39.750000 0.000000 2.684615 39.750000 0.000000 3.200000 39.500000 0.000000 0.725000 38.825001 0.000000 0.980000 38.959999 0.000000 1.100000 38.750000 0.000000 0.700000 38.500000 0.000000 0.500000 38.299999 0.000000 0.250000 38.226925 0.000000 0.000000 38.153847 0.000000 3.596154 39.750000 0.000000 3.500000 39.500000 0.000000 4.000000 40.000000 0.000000 3.900000 39.750000 0.000000 1.300000 39.099998 0.000000 1.500000 39.299999 0.000000 1.700000 39.500000 0.000000 2.000000 39.500000 0.000000 2.300000 39.500000 0.000000 2.600000 39.500000 0.000000 2.900000 39.500000 0.000000 3.285714 39.285713 0.000000 2.992308 39.292309 0.000000 0.928571 38.428570 0.000000 1.357143 38.857143 0.000000 1.250000 38.599998 0.000000 0.714286 38.214287 0.000000 0.500000 38.000000 0.000000 0.250000 37.923077 0.000000 0.000000 37.846153 0.000000 3.800000 39.500000 0.000000 3.580000 39.299999 0.000000 4.307693 40.000000 0.000000 4.203846 39.750000 0.000000 4.100000 39.500000 0.000000 3.387500 39.087502 0.000000 1.625000 39.049999 0.000000 1.785714 39.285713 0.000000 1.625000 38.825001 0.000000 2.075000 39.275002 0.000000 2.409091 39.281818 0.000000 2.681818 39.281818 0.000000 3.181250 38.881248 0.000000 2.784615 39.084614 0.000000 3.071429 39.071430 0.000000 1.760000 38.660000 0.000000 0.966667 38.099998 0.000000 1.200000 38.299999 0.000000 1.550000 38.450001 0.000000 0.733333 37.900002 0.000000 0.500000 37.700001 0.000000 0.250000 37.619232 0.000000 0.000000 37.538460 0.000000 0.954167 37.799995 0.000000 4.923077 40.000000 0.000000 4.615385 40.000000 0.000000 5.230769 40.000000 0.000000 3.900000 39.283333 0.000000 3.700000 39.066666 0.000000 4.507692 39.750000 0.000000 4.400000 39.500000 0.000000 4.194737 39.278946 0.000000 3.464706 38.864704 0.000000 2.218182 39.063637 0.000000 1.900000 38.900002 0.000000 2.027273 38.627274 0.000000 2.525000 38.900002 0.000000 3.252941 38.652943 0.000000 2.920000 38.700001 0.000000 1.809091 38.409092 0.000000 1.263636 37.972729 0.000000 1.590909 38.190910 0.000000 1.953846 38.253845 0.000000 0.710000 37.610001 0.000000 0.500000 37.400002 0.000000 0.250000 37.315384 0.000000 0.000000 37.230770 0.000000 1.175000 37.700001 0.000000 0.950000 37.500000 0.000000 1.414422 37.769230 0.000000 5.538462 40.000000 0.000000 5.846154 40.000000 0.000000 4.961538 39.750000 0.000000 5.265385 39.750000 0.000000 3.989474 39.057896 0.000000 3.750000 38.849998 0.000000 4.700000 39.500000 0.000000 4.500000 39.285713 0.000000 4.300000 39.071430 0.000000 3.533333 38.633335 0.000000 2.300000 38.700001 0.000000 2.161538 38.461540 0.000000 2.642857 38.642857 0.000000 2.214286 38.214287 0.000000 2.768750 38.468750 0.000000 3.373684 38.394737 0.000000 3.041176 38.441177 0.000000 1.746154 38.046154 0.000000 1.653846 37.838463 0.000000 2.000000 38.000000 0.000000 1.571429 37.571430 0.000000 0.718182 37.318180 0.000000 0.500000 37.099998 0.000000 0.250000 37.011539 0.000000 0.000000 36.923077 0.000000 0.915385 37.215385 0.000000 1.192308 37.423077 0.000000 6.153846 40.000000 0.000000 5.569231 39.750000 0.000000 5.873077 39.750000 0.000000 5.000000 39.500000 0.000000 5.300000 39.500000 0.000000 3.860000 38.660000 0.000000 4.100000 38.857143 0.000000 4.795455 39.281818 0.000000 4.571429 39.071430 0.000000 4.357143 38.857143 0.000000 3.650000 38.450001 0.000000 3.500000 38.214287 0.000000 2.480000 38.299999 0.000000 2.356250 38.056252 0.000000 2.900000 38.200001 0.000000 3.168421 38.173683 0.000000 3.300000 38.000000 0.000000 1.820000 37.700001 0.000000 2.300000 37.849998 0.000000 2.194118 37.594116 0.000000 1.380000 37.299999 0.000000 1.737500 37.437500 0.000000 1.625000 37.231251 0.000000 0.707692 37.007690 0.000000 0.500000 36.799999 0.000000 0.250000 36.707691 0.000000 0.000000 36.615383 0.000000 0.928571 36.928570 0.000000 1.142857 37.142857 0.000000 6.461538 40.000000 0.000000 6.176923 39.750000 0.000000 5.600000 39.500000 0.000000 5.900000 39.500000 0.000000 5.091304 39.291306 0.000000 5.378261 39.291306 0.000000 3.977273 38.409092 0.000000 4.181818 38.627274 0.000000 4.882609 39.082607 0.000000 4.673913 38.873913 0.000000 4.465218 38.665218 0.000000 3.772727 38.190910 0.000000 3.630435 37.830433 0.000000 2.500000 37.766666 0.000000 2.700000 37.983334 0.000000 2.963158 37.952633 0.000000 3.285714 37.785713 0.000000 3.421739 37.621738 0.000000 1.982353 37.382355 0.000000 2.233333 37.333332 0.000000 2.450000 37.549999 0.000000 1.325000 37.025002 0.000000 1.900000 37.116665 0.000000 1.700000 36.900002 0.000000 0.500000 36.500000 0.000000 0.720000 36.700001 0.000000 0.250000 36.403847 0.000000 0.000000 36.307693 0.000000 1.135294 36.535294 0.000000 1.175000 36.818748 0.000000 6.769231 40.000000 0.000000 6.480769 39.750000 0.000000 6.200000 39.500000 0.000000 5.684000 39.284000 0.000000 5.988889 39.288887 0.000000 4.112500 38.012501 0.000000 5.175000 39.075001 0.000000 5.468000 39.068001 0.000000 4.269565 38.247826 0.000000 4.537500 38.437500 0.000000 4.962500 38.862499 0.000000 4.713043 38.665218 0.000000 3.900000 37.799999 0.000000 3.687500 37.587502 0.000000 2.810000 37.610001 0.000000 3.071429 37.571430 0.000000 3.213043 37.413044 0.000000 3.475000 37.375000 0.000000 2.600000 37.400002 0.000000 2.142105 37.068420 0.000000 2.390000 37.189999 0.000000 6.784616 39.750000 0.000000 1.500000 36.683334 0.000000 1.936842 36.847370 0.000000 1.731579 36.626316 0.000000 2.214286 36.714287 0.000000 0.500000 36.200001 0.000000 0.706250 36.406250 0.000000 0.923529 36.323528 0.000000 0.250000 36.099998 0.000000 0.000000 36.000000 0.000000 1.150000 36.250000 0.000000 1.366667 36.466667 0.000000 7.013462 39.750000 0.000000 7.076923 40.000000 0.000000 6.500000 39.500000 0.000000 6.285714 39.285713 0.000000 6.071429 39.071430 0.000000 5.792857 39.071430 0.000000 4.172000 37.771999 0.000000 4.388000 37.987999 0.000000 5.276923 38.842308 0.000000 5.566667 38.866665 0.000000 4.604000 38.203999 0.000000 4.820000 38.419998 0.000000 5.036000 38.636002 0.000000 3.956000 37.556000 0.000000 3.740000 37.340000 0.000000 4.300000 37.599998 0.000000 2.954545 37.318180 0.000000 3.160870 37.204350 0.000000 3.524000 37.124001 0.000000 2.750000 37.099998 0.000000 2.545455 36.881817 0.000000 6.800000 39.500000 0.000000 7.100000 39.500000 0.000000 1.550000 36.349998 0.000000 2.378261 36.578262 0.000000 2.000000 36.500000 0.000000 1.785714 36.285713 0.000000 2.169565 36.369564 0.000000 0.500000 35.900002 0.000000 0.711765 36.111763 0.000000 1.115789 35.963158 0.000000 0.250000 35.796154 0.000000 0.000000 35.692307 0.000000 1.340000 36.139999 0.000000 7.242308 39.750000 0.000000 7.384615 40.000000 0.000000 6.590000 39.290001 0.000000 6.380000 39.080002 0.000000 6.170000 38.869999 0.000000 5.879310 38.848274 0.000000 4.511111 37.811111 0.000000 4.775000 38.000000 0.000000 5.642857 38.642857 0.000000 5.385714 38.642857 0.000000 4.933333 38.233334 0.000000 5.182143 38.428570 0.000000 5.000000 38.000000 0.000000 3.877778 37.177776 0.000000 4.088889 37.388889 0.000000 4.571429 37.571430 0.000000 4.357143 37.357143 0.000000 3.050000 36.950001 0.000000 3.407692 36.869232 0.000000 3.757143 36.928570 0.000000 3.973891 36.973885 0.000000 2.837500 36.737499 0.000000 2.625000 36.525002 0.000000 7.400000 39.500000 0.000000 6.887097 39.287098 0.000000 7.190909 39.290909 0.000000 1.727273 36.009090 0.000000 1.300000 35.857143 0.000000 2.412500 36.312500 0.000000 2.052174 36.160870 0.000000 0.700000 35.816666 0.000000 0.500000 35.599998 0.000000 0.910526 35.742104 0.000000 1.142857 35.642857 0.000000 0.250000 35.492306 0.000000 0.000000 35.384617 0.000000 1.522727 35.790909 0.000000 7.546154 39.750000 0.000000 7.692307 40.000000 0.000000 6.674193 39.074192 0.000000 6.440000 38.869999 0.000000 5.750000 38.450001 0.000000 6.220000 38.660000 0.000000 6.035484 38.435482 0.000000 4.844828 37.762070 0.000000 5.465517 38.413792 0.000000 5.258621 38.196552 0.000000 5.120000 37.820000 0.000000 4.070000 36.770000 0.000000 4.224138 37.110344 0.000000 4.490000 37.189999 0.000000 4.700000 37.400002 0.000000 4.970968 37.370968 0.000000 3.092000 36.692001 0.000000 3.244444 36.544445 0.000000 3.553571 36.714287 0.000000 3.810345 36.675861 0.000000 2.876000 36.476002 0.000000 2.660000 36.259998 0.000000 7.700000 39.500000 0.000000 7.488235 39.288235 0.000000 6.968750 39.087502 0.000000 7.276471 39.076469 0.000000 1.775000 35.674999 0.000000 1.987500 35.887501 0.000000 1.334783 35.534782 0.000000 2.444000 36.043999 0.000000 2.228000 35.827999 0.000000 0.705263 35.521053 0.000000 0.500000 35.299999 0.000000 0.928571 35.428570 0.000000 1.126087 35.326088 0.000000 0.250000 35.188461 0.000000 0.000000 35.076923 0.000000 1.724000 35.396000 0.00000
[...]
<PointData>
<DataArray type="Float32" Name="V" NumberOfComponents="1" format="ascii">
-4.28931904e+00 -4.35264063e+00 -5.32958078e+00 -5.34441757e+00 -2.70902181e+00 -1.54369330e+00 -5.40864277e+00 -5.28518820e+00 -4.70744896e+00 -3.30837321e+00 -7.39539433e+00 -1.03400493e+00 -2.42117167e+00 -6.46812057e+00 -4.43412256e+00 -3.16185904e+00 -6.13110113e+00 -7.14274549e+00 -7.09206343e-01 -2.54944587e+00 -1.75744855e+00 -3.99673581e-01 -7.99719691e-02 -1.85912326e-01 -1.13556676e-01 -1.19854189e-01 -4.19543409e+00 -5.28160858e+00 -2.57054806e+00 -5.29825830e+00 -8.89852619e+00 -9.26744652e+00 -5.90361118e-01 -1.47388375e+00 -6.46885514e-01 -1.52592814e+00 -1.32539713e+00 -2.23299336e+00 -1.16853380e+00 -9.98798966e-01 -1.13553238e+00 -1.27140903e+00 -1.13776064e+00 -1.50243938e+00 -2.42991376e+00 -2.54038405e+00 -1.57855034e+00 -5.31955051e+00 -3.95859504e+00 -6.94433546e+00 -8.55282116e+00 -1.47327971e+00 -1.54806376e+00 -5.25539875e-01 -1.35008347e+00 -2.69354224e+00 -1.09304464e+00 -1.95657241e+00 -1.69390440e+00 -1.54198205e+00 -1.47863686e+00 -1.47340143e+00 -7.94575453e-01 -5.21090984e-01 -2.68483257e+00 -1.32724631e+00 -2.41089582e+00 -2.47548461e+00 -7.18105412e+00 -6.29098177e+00 -6.14553308e+00 -1.87004650e+00 -1.04523253e+00 -8.59507024e-01 -1.57961082e+00 -2.16062713e+00 -3.15018249e+00 -2.49922061e+00 -9.41989362e-01 -1.09997642e+00 -8.81272256e-01 -6.75943255e-01 -5.08812785e-01 -7.91014433e-01 -3.14332271e+00 -3.46874571e+00 -1.37086165e+00 -2.40445971e+00 -1.36162174e+00 -1.82417166e+00 -3.75239897e+00 -3.73679495e+00 -6.11511230e+00 -7.88898373e+00 -1.94015515e+00 -1.00638950e+00 -9.95564520e-01 -1.18573594e+00 -1.28808093e+00 -2.68050051e+00 -1.92001665e+00 -2.13905168e+00 -1.37225950e+00 -7.50989020e-01 -2.46273017e+00 -1.09748793e+00 -1.67616868e+00 -7.92282343e-01 -1.51367879e+00 -8.55629385e-01 -1.33793437e+00 -2.64244080e+00 -1.15938044e+00 -8.06958854e-01 -2.80348802e+00 -5.31264925e+00 -5.48525381e+00 -5.68609476e+00 -1.32663274e+00 -3.09176064e+00 -1.10645580e+00 -1.33716679e+00 -1.18185461e+00 -2.11529303e+00 -2.65590978e+00 -2.56352282e+00 -9.85274494e-01 -2.11564970e+00 -1.50553572e+00 -2.71370363e+00 -2.04646897e+00 -9.05838370e-01 -1.82242668e+00 -1.38415134e+00 -7.51774549e-01 -2.26054049e+00 -1.13514316e+00 -1.71872842e+00 -2.00156140e+00 -1.10062838e+00 -2.19495916e+00 -1.69436479e+00 -3.03240967e+00 -3.52065706e+00 -6.34029531e+00 -1.09848833e+01 -1.87695074e+00 -2.61455822e+00 -1.72663164e+00 -2.67838812e+00 -2.39674520e+00 -2.06922007e+00 -1.89208865e+00 -1.98249948e+00 -1.46390212e+00 -1.55973947e+00 -3.12752438e+00 -1.56660736e+00 -1.75494552e+00 -8.40804517e-01 -5.58683753e-01 -2.12456727e+00 -7.50200748e-01 -9.56834972e-01 -3.53052235e+00 -8.74616742e-01 -1.09682465e+00 -1.29841840e+00 -1.34439719e+00 -1.93798220e+00 -7.99108386e-01 -3.00549650e+00 -4.65762711e+00 -5.30815315e+00 -5.42805767e+00 -3.04897094e+00 -1.48170030e+00 -1.93405855e+00 -2.61854386e+00 -2.20127511e+00 -2.69480395e+00 -1.38588655e+00 -1.38818371e+00 -1.44304156e+00 -2.32554793e+00 -3.66927075e+00 -1.48181927e+00 -2.07995629e+00 -1.20885646e+00 -1.03668547e+00 -6.92130625e-01 -2.93297815e+00 -2.50127745e+00 -7.24044442e-01 -1.19787967e+00 -1.47209251e+00 -1.21816266e+00 -1.72501838e+00 -1.91060698e+00 -9.84587312e-01 -1.97239828e+00 -3.65496421e+00 -2.53705955e+00 -5.88348627e+00 -6.77304268e+00 -1.73758328e+00 -1.96869624e+00 -2.43246484e+00 -2.65895057e+00 -3.40850425e+00 -1.69698811e+00 -2.08114862e+00 -2.69006038e+00 -3.79656768e+00 -4.11076117e+00 -1.51692104e+00 -2.09415150e+00 -1.36536205e+00 -2.03460860e+00 -1.02087021e+00 -1.80068958e+00 -1.15931070e+00 -1.66813862e+00 -2.48308039e+00 -1.74857974e+00 -1.99769557e+00 -1.34368765e+00 -7.56791234e-01 -3.19273663e+00 -9.09366786e-01 -1.42502618e+00 -8.35922837e-01 -6.89149797e-01 -4.30004549e+00 -3.19553638e+00 -2.62277126e+00 -6.26493692e+00 -6.58808947e+00 -1.76342475e+00 -2.01162457e+00 -3.62799239e+00 -2.69629741e+00 -3.96768856e+00 -2.72324371e+00 -4.65470266e+00 -5.07397127e+00 -1.16302443e+00 -2.43902659e+00 -1.30366445e+00 -1.48994660e+00 -1.78679645e+00 -2.06879163e+00 -2.51411366e+00 -2.51028395e+00 -1.35056520e+00 -2.25004220e+00 -1.05351365e+00 -6.42566025e-01 -1.01383817e+00 -9.65089977e-01 -2.07217264e+00 -4.47801447e+00 -5.62457323e+00 -1.96036386e+00 -1.06233203e+00 -1.61672461e+00 -1.21743846e+00 -1.89479053e+00 -4.04015160e+00 -2.43819284e+00 -1.81957865e+00 -6.08930206e+00 -6.80835342e+00 -1.09419250e+00 -4.48254585e+00 -4.04745197e+00 -3.31855416e+00 -4.39130020e+00 -2.61931396e+00 -1.83468306e+00 -1.47946441e+00 -2.81122184e+00 -2.48008204e+00 -2.45851398e+00 -1.48972917e+00 -2.07730985e+00 -3.35380983e+00 -1.01504755e+00 -1.83431125e+00 -2.76520205e+00 -1.50800705e+00 -3.23434234e+00 -2.18483377e+00 -3.04166365e+00 -2.93594813e+00 -8.49325657e-01 -1.53002596e+00 -5.26750755e+00 -3.52747393e+00 -4.28504515e+00 -1.24885428e+00 -2.24117255e+00 -1.46466410e+00 -6.22349322e-01 -3.33264375e+00 -3.90419316e+00 -2.36712623e+00 -1.38628685e+00 -5.39343834e+00 -5.74489212e+00 -1.69749367e+00 -7.78282928e+00 -4.94430161e+00 -5.35631847e+00 -3.07642889e+00 -3.08956695e+00 -3.17961597e+00 -3.54115605e+00 -1.48774660e+00 -2.03667212e+00 -1.37955141e+00 -1.64482570e+00 -1.16610789e+00 -1.68265879e+00 -1.39729738e+00 -1.98714268e+00 -2.18416762e+00 -6.82215452e-01 -1.22519505e+00 -7.91040540e-01 -8.88438463e-01 -2.11270046e+00 -1.12923419e+00 -4.32455540e+00 -5.07949305e+00 -5.46243191e+00 -8.18328762e+00 -8.81841660e-01 -2.17473722e+00 -1.11863017e+00 -1.06649339e+00 -1.75103068e+00 -2.53942418e+00 -3.96526289e+00 -2.05435562e+00 -2.19839001e+00 -5.30045843e+00 -5.92153311e+00 -1.91194844e+00 -3.65682888e+00 -5.18189812e+00 -4.04194975e+00 -4.36204863e+00 -1.71375990e+00 -2.55224872e+00 -5.08732462e+00 -1.61999476e+00 -2.08054852e+00 -4.82980585e+00 -1.59098756e+00 -3.69962955e+00 -2.84871650e+00 -1.11477029e+00 -2.95094681e+00 -1.57737958e+00 -2.13034701e+00 -1.56826365e+00 -1.82755959e+00 -2.27543879e+00 -7.24790514e-01 -3.55705237e+00 -4.26860094e+00 -4.95287228e+00 -5.66671944e+00 -4.30682516e+00 -6.83433533e-01 -1.77404106e+00 -2.73717308e+00 -6.42931759e-01 -1.18495345e+00 -2.94090414e+00 -3.58684826e+00 -1.13842762e+00 -1.85910511e+00 -2.12043929e+00 -6.36380243e+00 -1.07604332e+01 -7.60175645e-01 -2.98419452e+00 -3.73400021e+00 -5.45406389e+00 -3.72942686e+00 -3.68955731e+00 -6.29126644e+00 -4.78127289e+00 -9.18980598e-01 -2.10916543e+00 -3.06420016e+00 -2.60771394e+00 -1.72140121e+00 -1.98562777e+00 -2.30346465e+00 -1.33773422e+00 -1.48800778e+00 -3.70118785e+00 -2.35861588e+00 -1.17178977e+00 -7.58837402e-01 -1.58758998e+00 -1.16307604e+00 -3.33985806e+00 -3.30782628e+00 -4.36236954e+00 -3.50614905e+00 -5.55905056e+00 -6.37471724e+00 -1.23329949e+00 -1.04370356e+00 -7.61978090e-01 -2.51393485e+00 -2.53836393e+00 -3.78663635e+00 -1.77945697e+00 -2.23000526e+00 -2.05976176e+00 -1.33244610e+00 -5.84252357e+00 -6.84499168e+00 -1.83911049e+00 -2.54099226e+00 -3.18533134e+00 -3.67375898e+00 -2.16155577e+00 -5.34024763e+00 -5.88049746e+00 -2.50166059e+00 -4.27793550e+00 -3.05849695e+00 -2.89964294e+00 -2.21453190e+00 -1.17256248e+00 -3.60759711e+00 -3.68278956e+00 -2.80534148e+00 -3.08173704e+00 -2.82030916e+00 -1.77291584e+00 -1.03051353e+00 -1.29522717e+00 -7.90880978e-01 -1.88341975e+00 -2.39519906e+00 -2.95331407e+00 -2.88215709e+00 -4.32399464e+00 -3.13352728e+00 -5.32470846e+00 -4.97976112e+00 -3.76440001e+00 -6.38548911e-01 -8.35350573e-01 -9.23633695e-01 -2.40562415e+00 -3.87171888e+00 -9.45253372e-01 -1.72458422e+00 -7.39596128e-01 -9.83162761e-01 -1.44536114e+00 -1.89673495e+00 -5.95711994e+00 -6.32641172e+00 -7.44588137e-01 -2.51966119e+00 -3.27827191e+00 -2.95898628e+00 -2.13958049e+00 -2.73148656e+00 -1.30134559e+00 -1.39450252e+00 -1.58167601e+00 -5.91263866e+00 -4.54410124e+00 -2.46340322e+00 -4.57514715e+00 -4.39955997e+00 -4.41366243e+00 -2.55387259e+00 -1.36846089e+00 -3.23367190e+00 -1.35338163e+00 -1.78025830e+00 -2.36528015e+00 -4.00664139e+00 -2.99293542e+00 -3.79159117e+00 -2.17895031e+00 -1.96610463e+00 -2.87463880e+00 -9.60889697e-01 -8.47408295e-01 -3.83514404e+00 -2.90984607e+00 -3.81050086e+00 -4.87899637e+00 -3.54754925e+00 -3.15147924e+00 -2.03239608e+00 -2.87645173e+00 -2.94546723e+00 -3.92944360e+00 -1.83708107e+00 -2.22969389e+00 -9.60438728e-01 -1.86526108e+00 -1.51232016e+00 -2.26982498e+00 -7.46142209e-01 -6.57282639e+00 -5.36421633e+00 -1.18291926e+00 -1.47096193e+00 -1.41705024e+00 -2.86792445e+00 -3.45563269e+00 -2.79396653e+00 -2.22503042e+00 -3.09360433e+00 -2.11567521e+00 -2.67357230e+00 -4.17676067e+00 -6.14867496e+00 -3.63504481e+00 -5.12947083e+00 -3.89873171e+00 -1.87748647e+00 -1.32048655e+00 -3.74287462e+00 -3.55891466e+00 -3.95256495e+00 -1.01390839e+00 -6.99309635e+00 -3.57408214e+00 -3.15081644e+00 -2.48106670e+00 -2.43909025e+00 -1.09979153e+00 -2.23942137e+00 -1.83743143e+00 -8.74169648e-01 -3.43400478e+00 -2.90329504e+00 -3.12487936e+00 -3.16417074e+00 -4.15846395e+00 -2.92671537e+00 -7.25194275e-01 -2.51630712e+00 -3.90739775e+00 -9.11778748e-01 -1.04358339e+00 -1.87645614e+00 -6.38592780e-01 -2.13039517e+00 -1.61442673e+00 -1.11628330e+00 -9.40222561e-01 -2.06136560e+00 -6.85698700e+00 -6.28772974e+00 -1.36754394e+00 -2.02946401e+00 -2.42475581e+00 -1.76666009e+00 -2.49008799e+00 -1.87070405e+00 -1.59266365e+00 -2.31303954e+00 -2.89880538e+00 -3.29550862e+00 -3.07098675e+00 -2.03330541e+00 -2.92611575e+00 -2.80642080e+00 -5.23188353e+00 -3.84277010e+00 -4.60690832e+00 -7.15874481e+00 -4.16158056e+00 -4.60295868e+00 -5.65359735e+00 -2.42696333e+00 -1.94459617e+00 -2.36354542e+00 -3.39371395e+00 -1.16635072e+00 -2.78697252e+00 -4.24794769e+00 -3.53959441e+00 -3.48308229e+00 -5.11935520e+00 -1.74155819e+00 -1.37050188e+00 -1.17695653e+00 -8.32050860e-01 -2.70259738e+00 -4.73016453e+00 -2.95118880e+00 -3.30565596e+00 -3.50711679e+00 -2.83980489e+00 -3.80273914e+00 -2.35908961e+00 -2.78129840e+00 -3.76257992e+00 -1.65638852e+00 -2.00700760e+00 -1.42076039e+00 -9.53311920e-01 -1.26618850e+00 -2.49050450e+00 -1.03387117e+00 -2.43944383e+00 -6.20341420e-01 -7.15341139e+00 -5.64885139e+00 -9.99830604e-01 -7.97497272e-01 -1.64962053e+00 -2.48719668e+00 -2.13101244e+00 -2.74913001e+00 -2.52205086e+00 -2.87220335e+00 -2.65608382e+00 -2.23749685e+00 -2.32440877e+00 -3.47378302e+00 -2.48341703e+00 -3.46701479e+00 -2.25149059e+00 -2.42476678e+00 -2.47550011e+00 -3.02635241e+00 -6.76504755e+00 -3.38573670e+00 -5.15614462e+00 -3.13056970e+00 -2.34192252e+00 -2.73961282e+00 -3.22589087e+00 -2.64799309e+00 -1.28677022e+00 -1.92566168e+00 -3.78415871e+00 -3.70666838e+00 -4.20084620e+00 -3.46930766e+00 -1.05806935e+00 -2.22513700e+00 -3.04684305e+00 -3.08159161e+00 -3.83622360e+00 -3.15633273e+00 -2.84967184e+00 -2.89041543e+00 -3.09244013e+00 -3.22365046e+00 -8.40676665e-01 -2.60883784e+00 -2.44231272e+00 -3.86384892e+00 -1.05067980e+00 -1.27991080e+00 -1.01795363e+00 -1.96580708e+00 -7.61588752e-01 -1.86602592e+00 -8.96890104e-01 -1.79836524e+00 -1.81585252e+00 -7.04033756e+00 -6.94130135e+00 -1.53975737e+00 -1.67557180e+00 -2.22933006e+00 -2.50306129e+00 -2.84975243e+00 -2.46094942e+00 -2.04767132e+00 -2.27034616e+00 -2.47421575e+00 -2.46376872e+00 -3.18361378e+00 -2.68335485e+00 -2.11874437e+00 -1.80802882e+00 -2.60479188e+00 -2.14665961e+00 -2.82560802e+00 -2.18403006e+00 -2.04949546e+00 -2.41389465e+00 -3.13185740e+00 -2.83904481e+00 -4.98672152e+00 -2.68001699e+00 -5.50895786e+00 -3.06895638e+00 -2.22138619e+00 -3.08901882e+00 -5.79329491e+00 -1.96728861e+00 -4.57734776e+00 -3.17655182e+00 -2.83227420e+00 -4.04743290e+00 -6.15129662e+00 -1.46309531e+00 -1.06410432e+00 -3.17146683e+00 -2.91691375e+00 -3.12942576e+00 -2.30881500e+00 -3.08964896e+00 -3.30595040e+00 -3.02437592e+00 -2.70121670e+00 -3.50892282e+00 -1.10782492e+00 -2.43245101e+00 -3.80108714e+00 -1.70262301e+00 -1.16130638e+00 -2.46946788e+00 -8.35722029e-01 -1.69768143e+00 -1.43201065e+00 -7.84882247e-01 -1.29322827e+00 -2.36699247e+00 -9.74817753e-01 -5.34853125e+00 -5.09529591e+00 -7.96188533e-01 -8.59477758e-01 -3.50020361e+00 -3.48060679e+00 -3.49448895e+00 -4.10363770e+00 -2.23253393e+00 -2.45340729e+00 -2.25789165e+00 -2.79671144e+00 -3.45373368e+00 -2.28543687e+00 -1.91838384e+00 -2.76261806e+00 -2.03135943e+00 -2.61402297e+00 -2.98040462e+00 -2.47245955e+00 -2.58545899e+00 -2.88979435e+00 -4.13145304e+00 -2.56434727e+00 -3.19725227e+00 -4.20029497e+00 -1.96800125e+00 -1.88063407e+00 -4.75600433e+00 -3.37569427e+00 -3.75457525e+00 -4.57792711e+00 -3.04415560e+00 -2.10644341e+00 -4.80744934e+00 -4.48619270e+00 -3.87318826e+00 -3.74176073e+00 -2.38038492e+00 -3.39491296e+00 -3.20087671e+00 -3.03675580e+00 -3.28146577e+00 -3.00448585e+00 -2.79156232e+00 -3.03179049e+00 -3.24866724e+00 -2.36917448e+00 -2.70256305e+00 -2.04195857e+00 -2.07196999e+00 -2.52681136e+00 -2.60645795e+00 -3.80943155e+00 -1.48774445e+00 -1.16321111e+00 -5.73654115e-01 -1.70102108e+00 -2.09709644e+00 -2.00906157e+00 -8.87347221e-01 -1.67174399e+00 -8.36798072e-01 -1.09209895e+00 -6.33908415e+00 -5.66851473e+00 -1.50502062e+00 -3.55260038e+00 -4.19684267e+00 -3.07445049e+00 -3.79117417e+00 -3.33703780e+00 -2.74769306e+00 -2.94046879e+00 -3.00109386e+00 -3.15820312e+00 -4.22280502e+00 -3.49529290e+00 -2.96834207e+00 -2.46749759e+00 -2.82137895e+00 -3.13789964e+00 -2.73313379e+00 -1.74035859e+00 -1.79765165e+00 -1.97054243e+00 -2.16153693e+00 -2.29347062e+00 -3.03519106e+00 -3.07600307e+00 -3.49827313e+00 -3.97465515e+00 -2.61487937e+00 -3.34991145e+00 -3.90340781e+00 -2.20776200e+00 -3.72412944e+00 -1.91479588e+00 -3.67250180e+00 -7.00915337e+00 -4.83283186e+00 -3.48220539e+00 -2.53163123e+00 -2.85411787e+00 -6.54458380e+00 -3.45613956e+00 -1.98454666e+00 -1.34091580e+00 -3.14362860e+00 -2.80232716e+00 -3.26102591e+00 -2.71091413e+00 -2.72036672e+00 -2.77945828e+00 -2.57652879e+00 -1.75703430e+00 -8.78518820e-01 -2.47838473e+00 -3.67356396e+00 -1.20739210e+00 -1.99115109e+00 -6.54990435e-01 -1.66930771e+00 -2.14226079e+00 -6.98108137e-01 -2.14016366e+00 -1.36302447e+00 -1.47685659e+00 -2.99576831e+00 -5.55514622e+00 -6.25647449e+00 -9.25874829e-01 -1.32301247e+00 -3.69042563e+00 -3.36204815e+00 -3.52413845e+00 -3.93766999e+00 -3.40554786e+00 -2.54145336e+00 -2.82676840e+00 -3.62711716e+00 -4.23327398e+00 -4.96061420e+00 -3.09513378e+00 -3.13022566e+00 -3.85454440e+00 -4.54580355e+00 -3.89926243e+00 -3.11557078e+00 -3.17094183e+00 -3.39938879e+00 -3.96171737e+00 -4.04482937e+00 -1.76237571e+00 -2.98282099e+00 -3.00384688e+00 -4.32458401e+00 -2.52318716e+00 -3.28493690e+00 -4.21072912e+00 -2.15157819e+00 -3.51113009e+00 -3.52587676e+00 -4.83174133e+00 -3.80125475e+00 -3.11023712e+00 -4.96225119e+00 -2.57743740e+00 -3.86268187e+00 -2.80163312e+00 -5.03403521e+00 -3.50445652e+00 -2.23106265e+00 -2.69874072e+00 -3.06483984e+00 -2.41108561e+00 -2.65147710e+00 -2.53141975e+00 -2.71276450e+00 -2.35262632e+00 -2.02719879e+00 -2.47802591e+00 -1.29194832e+00 -3.72073054e+00 -2.64162493e+00 -1.46274424e+00 -1.47244346e+00 -1.92794621e+00 -6.76623046e-01 -2.09031487e+00 -1.30014980e+00 -2.01431847e+00 -5.20091116e-01 -1.57732737e+00 -1.30813324e+00 -2.58365536e+00 -1.67121089e+00 -3.82228279e+00 -7.46663618e+00 -6.29712439e+00 -7.86886334e-01 -3.62037468e+00 -3.95023060e+00 -3.45981693e+00 -3.40612340e+00 -3.65230727e+00 -3.64136720e+00 -4.06217194e+00 -3.26493216e+00 -3.34596443e+00 -3.40656519e+00 -5.11321545e+00 -4.05398989e+00 -5.12174749e+00 -5.86574507e+00 -4.44691229e+00 -5.08371449e+00 -5.80955935e+00 -1.91760063e+00 -1.95721281e+00 -2.16977239e+00 -2.17274070e+00 -2.20786524e+00 -3.12935162e+00 -2.97327018e+00 -3.06303692e+00 -3.01953673e+00 -5.27226162e+00 -2.74711704e+00 -2.37303209e+00 -3.16488171e+00 -2.61380076e+00 -3.16529632e+00 -2.66558671e+00 -4.08846903e+00 -3.03256273e+00 -4.05377913e+00 -5.70386362e+00 -2.89279222e+00 -3.64292789e+00 -2.82489252e+00 -3.32872486e+00 -4.30598640e+00 -2.72470117e+00 -2.26736021e+00 -2.10954213e+00 -2.30312657e+00 -2.71448374e+00 -2.45315146e+00 -2.24918461e+00 -1.84759068e+00 -2.12505364e+00 -2.17396307e+00 -2.32847810e+00 -1.04632807e+00 -1.08147264e+00 -1.73507988e+00 -5.76729059e-01 -1.69493055e+00 -1.74370170e+00 -8.08536053e-01 -7.55499840e-01 -2.10401154e+00 -1.58086610e+00 -2.47876287e+00 -1.28669798e+00 -1.67267871e+00 -2.72852468e+00 -3.94770861e+00 -6.29317522e+00 -5.81440353e+00 -1.48402047e+00 -6.18532038e+00 -5.13123989e+00 -3.90401554e+00 -3.96064115e+00 -3.91259265e+00 -4.32789421e+00 -3.66645622e+00 -3.09556675e+00 -3.48985267e+00 -3.57434940e+00 -4.09292936e+00 -5.34276485e+00 -5.57980156e+00 -4.99547577e+00 -5.98484993e+00 -6.49516630e+00 -4.80285549e+00 -3.69229555e+00 -3.59463429e+00 -4.99507999e+00 -5.64615631e+00 -4.72544622e+00 -2.27213240e+00 -2.26789522e+00 -2.54132032e+00 -2.34124541e+00 -2.34478807e+00 -2.66961074e+00 -3.88093710e+00 -2.53398061e+00 -4.19965458e+00 -2.53371811e+00 -2.50635982e+00 -4.38323545e+00 -3.26982832e+00 -3.87934995e+00 -7.92005539e+00 -3.17203450e+00 -2.32845902e+00 -4.71610260e+00 -2.09477663e+00 -2.76727629e+00 -2.39620447e+00 -2.36789870e+00 -2.10190606e+00 -2.43789268e+00 -2.10797000e+00 -1.95858824e+00 -2.51375890e+00 -2.41923428e+00 -9.89297092e-01 -1.35454392e+00 -4.69267190e-01 -1.45149195e+00 -9.39955771e-01 -1.93674839e+00 -2.61692524e+00 -1.33546996e+00 -7.53526330e-01 -1.33114672e+00 -2.75779486e+00 -2.15627360e+00 -6.76902294e+00 -2.55076480e+00 -3.91318655e+00 -6.84585333e+00 -6.02526522e+00 -6.00192904e-01 -2.38263869e+00 -5.57818794e+00 -4.01089382e+00 -4.24645805e+00 -4.02355289e+00 -3.99058604e+00 -3.99375010e+00 -4.10051966e+00 -3.51118374e+00 -3.86027408e+00 -4.60232067e+00 -3.29187942e+00 -3.49770021e+00 -6.05758905e+00 -5.05028296e+00 -4.99075508e+00 -5.11620903e+00 -4.23538733e+00 -5.58903170e+00 -5.95673561e+00 -5.47138834e+00 -6.11086464e+00 -3.91433263e+00 -3.59720898e+00 -2.49093318e+00 -2.55131817e+00 -2.44496107e+00 -2.59549284e+00 -3.33461785e+00 -3.18995070e+00 -3.38811183e+00 -3.26052856e+00 -2.41981936e+00 -2.09439206e+00 -2.26471806e+00 -2.02187490e+00 -2.01042008e+00 -2.95048499e+00 -2.90616393e+00 -1.95288348e+00 -2.66493678e+00 -7.08165979e+00 -3.30369949e+00 -6.08057928e+00 -2.99831724e+00 -3.17490506e+00 -3.64645243e+00 -4.38474131e+00 -2.60221910e+00 -3.05393815e+00 -1.81503212e+00 -2.21903896e+00 -2.05596709e+00 -3.03056717e+00 -3.07643032e+00 -1.93768299e+00 -3.04345679e+00 -1.46033347e+00 -1.05485690e+00 -2.08585238e+00 -6.88607156e-01 -6.20597124e-01 -1.94473922e+00 -9.57052886e-01 -1.80899870e+00 -1.13326681e+00 -1.76311886e+00 -1.84141290e+00 -1.75321400e+00 -2.06945038e+00 -2.66168618e+00 -4.13328362e+00 -7.13357496e+00 -5.66857052e+00 -1.01183844e+00 -2.14268494e+00 -4.46608877e+00 -4.59868526e+00 -5.29594612e+00 -4.26570368e+00 -5.83582497e+00 -5.54570007e+00 -4.02034521e+00 -4.25591421e+00 -5.01314592e+00 -3.67555451e+00 -3.90575671e+00 -2.88258481e+00 -5.76781321e+00 -4.47810221e+00 -4.41363382e+00 -4.36955738e+00 -5.29162741e+00 -4.28814220e+00 -4.67283726e+00 -3.75698042e+00 -3.08359194e+00 -3.09834051e+00 -8.60960197e+00 -5.15319109e+00 -3.39080644e+00 -8.32886314e+00 -3.69330812e+00 -6.15336800e+00 -6.18756485e+00 -2.20261836e+00 -2.25317073e+00 -2.14218616e+00 -2.31690478e+00 -2.52747488e+00 -1.97260594e+00 -3.30295014e+00 -2.29823017e+00 -5.15571594e+00 -2.57168388e+00 -4.56830072e+00 -3.58650684e+00 -3.49240851e+00 -3.41153121e+00 -2.72542500e+00 -2.68607855e+00 -4.38126612e+00 -3.84072709e+00 -2.25608611e+00 -2.17426038e+00 -2.46170235e+00 -2.07831359e+00 -2.71287727e+00 -2.90421367e+00 -1.11884451e+00 -6.29288137e-01 -1.45244670e+00 -4.41080421e-01 -1.39198196e+00 -1.86984396e+00 -2.83506393e+00 -8.11940968e-01 -1.42976356e+00 -1.32460332e+00 -5.30603552e+00 -1.75692701e+00 -2.71985269e+00 -3.52011395e+00 -2.70254803e+00 -3.92712045e+00 -6.86533260e+00 -6.31399012e+00 -1.24518251e+00 -1.29113567e+00 -3.64791989e-01 -2.61768556e+00 -2.07630086e+00 -5.18318605e+00 -4.84162283e+00 -4.71422577e+00 -5.54603815e+00 -4.26358509e+00 -4.49278593e+00 -4.80037117e+00 -2.93995643e+00 -3.27452946e+00 -5.20758247e+00 -5.5340161