<?xml version="1.0"?>
<VTKFile type="UnstructuredGrid"  byte_order="LittleEndian">
<UnstructuredGrid>
<Piece NumberOfPoints="17484" NumberOfCells=" 36016">
<Points>
<DataArray type="Float32" NumberOfComponents="3" format="ascii">
0.000000 40.000000 0.000000 0.307692 40.000000 0.000000 0.000000 39.692307 0.000000 0.403846 39.750000 0.000000 0.615385 40.000000 0.000000 0.923077 40.000000 0.000000 0.000000 39.384617 0.000000 1.538462 40.000000 0.000000 1.230769 40.000000 0.000000 1.846154 40.000000 0.000000 0.250000 39.442307 0.000000 0.500000 39.500000 0.000000 0.707692 39.750000 0.000000 0.936538 39.750000 0.000000 1.165385 39.750000 0.000000 2.153846 40.000000 0.000000 2.461539 40.000000 0.000000 2.769231 40.000000 0.000000 3.076923 40.000000 0.000000 0.000000 39.076923 0.000000 0.250000 39.138462 0.000000 1.469231 39.750000 0.000000 1.923077 39.750000 0.000000 2.151923 39.750000 0.000000 0.500000 39.200001 0.000000 0.800000 39.500000 0.000000 1.100000 39.500000 0.000000 1.400000 39.500000 0.000000 2.380769 39.750000 0.000000 2.684615 39.750000 0.000000 2.988461 39.750000 0.000000 3.692308 40.000000 0.000000 3.384615 40.000000 0.000000 3.292308 39.750000 0.000000 0.500000 38.900002 0.000000 0.000000 38.769230 0.000000 0.250000 38.684616 0.000000 1.700000 39.500000 0.000000 2.000000 39.500000 0.000000 2.300000 39.500000 0.000000 0.700000 39.099998 0.000000 0.950000 39.200001 0.000000 1.175000 39.275002 0.000000 1.500000 39.299999 0.000000 2.900000 39.500000 0.000000 2.600000 39.500000 0.000000 3.200000 39.500000 0.000000 4.000000 40.000000 0.000000 3.746154 39.750000 0.000000 3.500000 39.500000 0.000000 4.307693 40.000000 0.000000 4.615385 40.000000 0.000000 4.923077 40.000000 0.000000 5.230769 40.000000 0.000000 0.725000 38.825001 0.000000 0.500000 38.599998 0.000000 0.250000 38.455769 0.000000 0.000000 38.461540 0.000000 1.812500 39.275002 0.000000 2.075000 39.275002 0.000000 2.390000 39.290001 0.000000 1.100000 38.900002 0.000000 1.300000 39.099998 0.000000 1.625000 39.049999 0.000000 3.285714 39.285713 0.000000 2.750000 39.099998 0.000000 2.975000 39.299999 0.000000 4.050000 39.750000 0.000000 3.800000 39.500000 0.000000 3.593750 39.293751 0.000000 3.387500 39.087502 0.000000 4.278846 39.750000 0.000000 4.507692 39.750000 0.000000 4.811538 39.750000 0.000000 5.538462 40.000000 0.000000 5.265385 39.750000 0.000000 5.846154 40.000000 0.000000 0.900000 38.700001 0.000000 0.700000 38.500000 0.000000 0.500000 38.299999 0.000000 0.250000 38.226925 0.000000 0.000000 38.153847 0.000000 2.180000 39.080002 0.000000 1.900000 38.900002 0.000000 2.857143 38.857143 0.000000 2.525000 38.900002 0.000000 1.142857 38.642857 0.000000 1.357143 38.857143 0.000000 1.666667 38.700001 0.000000 3.140000 38.900002 0.000000 4.100000 39.500000 0.000000 3.900000 39.283333 0.000000 3.700000 39.066666 0.000000 3.500000 38.849998 0.000000 4.400000 39.500000 0.000000 4.700000 39.500000 0.000000 5.000000 39.500000 0.000000 5.569231 39.750000 0.000000 5.300000 39.500000 0.000000 6.153846 40.000000 0.000000 5.873077 39.750000 0.000000 1.062500 38.375000 0.000000 0.500000 38.000000 0.000000 0.875000 38.150002 0.000000 0.250000 37.923077 0.000000 0.000000 37.846153 0.000000 2.975000 38.674999 0.000000 2.027273 38.627274 0.000000 2.300000 38.700001 0.000000 2.700000 38.500000 0.000000 1.433333 38.500000 0.000000 1.809091 38.409092 0.000000 3.300000 38.633335 0.000000 4.183333 39.283333 0.000000 3.966667 39.066666 0.000000 3.750000 38.849998 0.000000 3.578947 38.615791 0.000000 4.490000 39.290001 0.000000 4.795455 39.281818 0.000000 5.091304 39.291306 0.000000 6.461538 40.000000 0.000000 5.600000 39.500000 0.000000 5.378261 39.291306 0.000000 6.176923 39.750000 0.000000 5.900000 39.500000 0.000000 6.769231 40.000000 0.000000 7.076923 40.000000 0.000000 7.384615 40.000000 0.000000 1.340000 38.240002 0.000000 1.130000 38.029999 0.000000 0.725000 37.924999 0.000000 0.500000 37.700001 0.000000 0.920000 37.820000 0.000000 0.250000 37.469231 0.000000 0.000000 37.538460 0.000000 3.100000 38.416668 0.000000 2.161538 38.461540 0.000000 2.480000 38.299999 0.000000 2.750000 38.262501 0.000000 1.953846 38.253845 0.000000 1.625000 38.099998 0.000000 3.373684 38.394737 0.000000 4.280000 39.080002 0.000000 4.070000 38.869999 0.000000 3.700000 38.428570 0.000000 3.860000 38.660000 0.000000 4.571429 39.071430 0.000000 4.882609 39.082607 0.000000 5.175000 39.075001 0.000000 6.480769 39.750000 0.000000 5.692307 39.280769 0.000000 5.484615 39.061539 0.000000 5.996428 39.285713 0.000000 6.200000 39.500000 0.000000 6.784616 39.750000 0.000000 7.088461 39.750000 0.000000 7.392308 39.750000 0.000000 7.692307 40.000000 0.000000 1.154545 37.754547 0.000000 1.400000 37.900002 0.000000 0.710000 37.610001 0.000000 0.500000 37.400002 0.000000 0.936364 37.536366 0.000000 0.250000 37.240383 0.000000 0.000000 37.230770 0.000000 3.100000 38.200001 0.000000 2.260000 38.099998 0.000000 2.525000 38.056252 0.000000 2.883333 37.983334 0.000000 1.653846 37.838463 0.000000 1.884615 38.046154 0.000000 3.500000 38.214287 0.000000 4.357143 38.857143 0.000000 4.142857 38.642857 0.000000 3.714286 38.214287 0.000000 3.928571 38.428570 0.000000 4.673913 38.873913 0.000000 4.962500 38.862499 0.000000 3.300000 38.000000 0.000000 5.276923 38.842308 0.000000 6.500000 39.500000 0.000000 5.792857 39.071430 0.000000 5.589286 38.857143 0.000000 6.071429 39.071430 0.000000 6.285714 39.285713 0.000000 6.800000 39.500000 0.000000 7.100000 39.500000 0.000000 7.400000 39.500000 0.000000 7.696154 39.750000 0.000000 8.000000 40.000000 0.000000 7.700000 39.500000 0.000000 1.330769 37.630768 0.000000 1.123077 37.423077 0.000000 1.571429 37.571430 0.000000 0.718182 37.318180 0.000000 0.500000 37.099998 0.000000 0.915385 37.215385 0.000000 0.250000 37.011539 0.000000 0.000000 36.923077 0.000000 3.100000 37.785713 0.000000 2.040000 37.900002 0.000000 2.405882 37.805882 0.000000 2.757895 37.731579 0.000000 2.900000 37.571430 0.000000 1.820000 37.700001 0.000000 3.630435 37.830433 0.000000 4.465218 38.665218 0.000000 4.256522 38.456520 0.000000 3.839130 38.039131 0.000000 4.047826 38.247826 0.000000 4.750000 38.650002 0.000000 5.069231 38.623077 0.000000 3.421739 37.621738 0.000000 3.687500 37.587502 0.000000 5.385714 38.642857 0.000000 8.615385 40.000000 0.000000 8.307693 40.000000 0.000000 8.923077 40.000000 0.000000 9.230769 40.000000 0.000000 5.672414 38.631035 0.000000 6.590000 39.290001 0.000000 5.879310 38.848274 0.000000 6.170000 38.869999 0.000000 6.380000 39.080002 0.000000 6.887097 39.287098 0.000000 7.190909 39.281818 0.000000 7.488235 39.288235 0.000000 8.000000 39.750000 0.000000 8.000000 39.500000 0.000000 8.303846 39.750000 0.000000 7.785714 39.294285 0.000000 1.357143 37.357143 0.000000 1.142857 37.142857 0.000000 1.737500 37.437500 0.000000 1.531250 37.231251 0.000000 0.707692 37.007690 0.000000 0.500000 36.799999 0.000000 0.928571 36.928570 0.000000 0.000000 36.615383 0.000000 0.250000 36.557693 0.000000 3.159091 37.536366 0.000000 3.257545 37.330181 0.000000 2.194118 37.594116 0.000000 2.552632 37.510525 0.000000 2.857143 37.357143 0.000000 1.982353 37.382355 0.000000 3.900000 37.799999 0.000000 4.537500 38.437500 0.000000 4.325000 38.224998 0.000000 4.112500 38.012501 0.000000 4.861538 38.403847 0.000000 5.182143 38.428570 0.000000 3.560000 37.340000 0.000000 3.956000 37.556000 0.000000 3.782639 37.382637 0.000000 5.465517 38.413792 0.000000 9.538462 40.000000 0.000000 9.846154 40.000000 0.000000 8.607693 39.750000 0.000000 9.061539 39.750000 0.000000 9.365385 39.750000 0.000000 6.035484 38.435482 0.000000 5.822581 38.222580 0.000000 6.674193 39.074192 0.000000 6.248387 38.648388 0.000000 6.461290 38.861290 0.000000 6.354546 38.454544 0.000000 6.981818 39.081818 0.000000 7.571429 39.088570 0.000000 7.276471 39.076469 0.000000 8.300000 39.500000 0.000000 8.083333 39.291668 0.000000 8.600000 39.500000 0.000000 7.866667 39.083332 0.000000 8.162162 39.078377 0.000000 1.325000 37.025002 0.000000 1.118750 36.818748 0.000000 1.770588 37.170589 0.000000 1.558823 36.958824 0.000000 0.714286 36.714287 0.000000 0.500000 36.500000 0.000000 0.912500 36.612499 0.000000 0.250000 36.328846 0.000000 0.000000 36.307693 0.000000 3.356000 37.124001 0.000000 3.004348 37.204350 0.000000 2.347368 37.289474 0.000000 2.642857 37.142857 0.000000 2.939130 36.995651 0.000000 2.142105 37.068420 0.000000 4.172000 37.771999 0.000000 4.604000 38.203999 0.000000 4.388000 37.987999 0.000000 4.978571 38.214287 0.000000 5.258621 38.196552 0.000000 4.300000 37.599998 0.000000 3.615385 37.088463 0.000000 4.088889 37.388889 0.000000 3.877778 37.177776 0.000000 5.609677 38.009678 0.000000 10.153846 40.000000 0.000000 9.669230 39.750000 0.000000 9.973077 39.750000 0.000000 8.900000 39.500000 0.000000 9.200000 39.500000 0.000000 9.500000 39.500000 0.000000 6.145454 38.245453 0.000000 5.936364 38.036362 0.000000 6.772727 38.872726 0.000000 6.563636 38.663635 0.000000 6.641176 38.441177 0.000000 6.429412 38.229412 0.000000 7.142857 38.677143 0.000000 7.650000 38.875000 0.000000 7.433333 38.666668 0.000000 8.381081 39.289188 0.000000 8.779398 39.224537 0.000000 7.943243 38.867569 0.000000 8.362131 38.928543 0.000000 1.347059 36.747059 0.000000 1.135294 36.535294 0.000000 1.800000 36.900002 0.000000 1.583333 36.683334 0.000000 1.970000 36.770000 0.000000 0.500000 36.200001 0.000000 0.706250 36.406250 0.000000 1.100000 36.250000 0.000000 0.250000 36.099998 0.000000 0.000000 36.000000 0.000000 3.308000 36.908001 0.000000 2.428571 36.928570 0.000000 2.948000 36.692001 0.000000 2.717391 36.786957 0.000000 2.214286 36.714287 0.000000 3.455555 36.755554 0.000000 4.511111 37.811111 0.000000 4.722222 38.022221 0.000000 5.051724 37.979309 0.000000 5.340000 37.820000 0.000000 4.571429 37.571430 0.000000 4.357143 37.357143 0.000000 3.757143 36.928570 0.000000 4.142857 37.142857 0.000000 3.973890 36.973888 0.000000 5.727273 37.827274 0.000000 10.461538 40.000000 0.000000 10.201923 39.750000 0.000000 10.430769 39.750000 0.000000 9.800000 39.500000 0.0
[...]
<PointData>
<DataArray type="Float32" Name="V" NumberOfComponents="1" format="ascii">
-4.99581289e+00 -6.09975910e+00 -4.42842293e+00 -6.22840929e+00 -3.28740954e+00 -2.14290476e+00 -3.66237116e+00 -1.10749364e+00 -1.62863863e+00 -8.63772094e-01 -5.02035046e+00 -4.82239866e+00 -3.43806005e+00 -3.00672674e+00 -2.95779920e+00 -1.05357504e+00 -8.44293177e-01 -9.43641841e-01 -1.13556576e+00 -2.94649458e+00 -3.99700713e+00 -2.56525970e+00 -2.22985458e+00 -2.55672526e+00 -5.12653399e+00 -3.24812722e+00 -2.63773465e+00 -2.36567450e+00 -2.33814931e+00 -1.97932184e+00 -1.96805525e+00 -1.89197588e+00 -1.45702565e+00 -2.18453741e+00 -2.99896979e+00 -2.48134708e+00 -3.25215244e+00 -1.77960348e+00 -1.23393667e+00 -1.21551299e+00 -3.88037562e+00 -2.74820256e+00 -1.54079306e+00 -1.80651569e+00 -1.76072776e+00 -1.65740502e+00 -2.47255564e+00 -2.28349543e+00 -2.52650142e+00 -3.83240414e+00 -2.33546996e+00 -2.35106063e+00 -2.32005453e+00 -2.60787058e+00 -2.36062860e+00 -3.67991757e+00 -3.35000300e+00 -2.41596818e+00 -1.54110014e+00 -8.90550375e-01 -8.37335348e-01 -2.72822785e+00 -2.11378098e+00 -2.42513752e+00 -1.68988431e+00 -5.01141500e+00 -1.18627834e+00 -3.25936127e+00 -3.24452329e+00 -3.05769658e+00 -2.26560950e+00 -3.00225687e+00 -2.84481192e+00 -2.95265198e+00 -4.13668156e+00 -3.39324546e+00 -5.71446753e+00 -3.33589578e+00 -2.99190617e+00 -5.87676334e+00 -3.80073571e+00 -3.03402948e+00 -2.25426674e+00 -1.00777328e+00 -1.11909854e+00 -5.98242164e-01 -6.39859724e+00 -1.49174607e+00 -1.03311157e+00 -2.20160413e+00 -4.56669998e+00 -2.11812425e+00 -6.75573730e+00 -1.55367815e+00 -4.68875551e+00 -4.33394051e+00 -5.23122597e+00 -6.62049580e+00 -5.33623123e+00 -4.06478310e+00 -7.69780588e+00 -1.81105196e+00 -4.46186590e+00 -3.72620177e+00 -5.76320887e+00 -5.12056541e+00 -1.75706089e+00 -2.92533064e+00 -1.59304237e+00 -1.76725137e+00 -3.38431239e+00 -1.18720508e+00 -2.55527472e+00 -3.29415560e+00 -2.73696184e+00 -3.61243653e+00 -2.31396651e+00 -3.80950689e+00 -3.52502418e+00 -6.37179470e+00 -2.40078306e+00 -4.02261114e+00 -4.04034376e+00 -5.08788824e+00 -3.49615884e+00 -1.50222278e+00 -8.12961102e-01 -7.15998769e-01 -1.51612866e+00 -2.82474208e+00 -3.26678443e+00 -3.82771516e+00 -2.92546964e+00 -5.50966024e+00 -5.32584715e+00 -1.73993039e+00 -1.30024409e+00 -8.57296228e-01 -1.03017235e+00 -8.17960083e-01 -3.84613132e+00 -3.87268448e+00 -6.22501850e+00 -3.94836235e+00 -2.98482752e+00 -4.63515377e+00 -3.38165140e+00 -3.00743961e+00 -5.23064852e+00 -3.31638265e+00 -3.47921658e+00 -3.61100388e+00 -3.06357741e+00 -3.93926930e+00 -2.55458522e+00 -1.36208737e+00 -1.06341398e+00 -1.37908316e+00 -2.58011007e+00 -1.81755173e+00 -3.64940095e+00 -5.91675997e+00 -4.73735285e+00 -4.32153511e+00 -3.87007904e+00 -1.29232240e+00 -1.41821373e+00 -2.63866782e+00 -4.17074203e+00 -9.54207361e-01 -3.99908400e+00 -3.90272593e+00 -2.94302869e+00 -3.11607027e+00 -2.44698071e+00 -2.69867563e+00 -4.56772947e+00 -2.46548057e+00 -2.63500071e+00 -3.41785169e+00 -2.09677958e+00 -5.05487585e+00 -2.95987058e+00 -2.08730960e+00 -4.19675159e+00 -2.21688867e+00 -2.99575114e+00 -1.41899490e+00 -1.75897348e+00 -9.59993303e-01 -1.51451898e+00 -2.79655433e+00 -2.60171103e+00 -2.43305016e+00 -3.78989911e+00 -3.82666755e+00 -3.01616788e+00 -4.31511259e+00 -3.85554576e+00 -1.74960709e+00 -1.44697714e+00 -8.17391753e-01 -7.66976058e-01 -1.79386353e+00 -8.51582587e-01 -3.70739675e+00 -2.24683285e+00 -2.95592141e+00 -2.59724808e+00 -2.55657768e+00 -5.66655397e+00 -2.26045871e+00 -3.32275367e+00 -3.82467699e+00 -3.21143198e+00 -7.34764636e-01 -7.81613886e-01 -7.64820695e-01 -8.81966233e-01 -2.53561068e+00 -1.35115814e+00 -3.98630738e+00 -1.50735056e+00 -3.92484570e+00 -1.26339757e+00 -2.26087904e+00 -1.12074912e+00 -1.66218638e+00 -2.00155282e+00 -1.64145517e+00 -1.41356409e+00 -1.61825418e+00 -2.61346698e+00 -2.48704863e+00 -1.18206775e+00 -3.09790206e+00 -4.68504429e+00 -3.08840442e+00 -3.84475636e+00 -4.45758915e+00 -3.18165779e+00 -2.41182637e+00 -1.91262281e+00 -2.74719810e+00 -2.51431108e+00 -1.48086905e+00 -6.31040859e+00 -2.63350773e+00 -4.60975409e+00 -3.55638361e+00 -3.81786466e+00 -3.49882507e+00 -3.20886254e+00 -3.65657783e+00 -5.44536018e+00 -3.11677790e+00 -1.13285947e+00 -1.11439764e+00 -1.50042188e+00 -1.61299384e+00 -1.33482718e+00 -2.70419240e+00 -2.43974233e+00 -2.70147967e+00 -2.61766481e+00 -1.94486690e+00 -2.48936892e+00 -1.89128220e+00 -1.47800577e+00 -2.97476697e+00 -2.07197309e+00 -1.47421968e+00 -2.63502455e+00 -2.06545138e+00 -2.90579891e+00 -4.27709103e+00 -1.93874669e+00 -1.09723365e+00 -2.68439031e+00 -3.08586454e+00 -6.30929708e+00 -2.60968137e+00 -4.01742268e+00 -3.37147689e+00 -2.07601762e+00 -1.93684411e+00 -5.67391753e-01 -8.61699045e-01 -2.72426653e+00 -1.68441379e+00 -5.93956566e+00 -3.12373018e+00 -5.04168892e+00 -3.62923741e+00 -6.32644224e+00 -3.96987796e+00 -2.84402275e+00 -4.10176754e+00 -6.12952471e+00 -5.31612396e+00 -1.62855971e+00 -1.96557117e+00 -2.40245271e+00 -2.10896468e+00 -3.60460854e+00 -2.26341200e+00 -2.51483655e+00 -2.08310819e+00 -2.45514655e+00 -2.25682592e+00 -1.52878213e+00 -1.63884735e+00 -7.47579813e-01 -9.94015932e-01 -1.93493903e+00 -1.24188423e+00 -2.10337472e+00 -9.48272943e-01 -2.24211407e+00 -1.63902211e+00 -2.29479909e+00 -1.34967494e+00 -1.50376475e+00 -5.71797729e-01 -3.79949355e+00 -4.32967949e+00 -2.59171200e+00 -3.87760687e+00 -2.92006087e+00 -5.23201799e+00 -3.91402960e+00 -1.17411315e+00 -1.51309133e+00 -4.37653154e-01 -4.52734089e+00 -6.68844557e+00 -3.44991589e+00 -5.13105965e+00 -3.67179132e+00 -3.74001694e+00 -5.11086798e+00 -5.97260189e+00 -3.79046392e+00 -3.64616632e+00 -2.92519832e+00 -1.89553559e+00 -2.33180451e+00 -2.54491448e+00 -2.56534815e+00 -6.06190634e+00 -1.93137538e+00 -1.81335688e+00 -1.34998012e+00 -3.25626588e+00 -1.81744123e+00 -2.35870957e+00 -1.66495335e+00 -3.02809954e+00 -8.16460133e-01 -4.01460648e+00 -1.21048200e+00 -1.47217512e+00 -1.57175136e+00 -1.06303918e+00 -1.87360263e+00 -6.14340067e+00 -2.98317719e+00 -1.36516321e+00 -2.03288698e+00 -2.45891833e+00 -2.14500284e+00 -1.47603261e+00 -1.76943934e+00 -6.63863945e+00 -1.86528587e+00 -2.74898839e+00 -3.26545334e+00 -3.42477512e+00 -2.77438521e+00 -1.92970824e+00 -7.92164087e-01 -2.95496178e+00 -2.03428364e+00 -1.81720197e+00 -4.74778223e+00 -8.33092499e+00 -5.13182020e+00 -8.64258957e+00 -3.58916783e+00 -3.49382734e+00 -4.76537848e+00 -3.88994980e+00 -3.37771583e+00 -3.67861962e+00 -3.23178720e+00 -2.78004122e+00 -3.33187318e+00 -1.61099863e+00 -8.08712769e+00 -2.95692277e+00 -1.74790156e+00 -2.65194869e+00 -3.80251193e+00 -1.43384075e+00 -3.25462151e+00 -2.06974316e+00 -1.39013505e+00 -2.31789994e+00 -1.63948596e+00 -3.17727900e+00 -9.69582975e-01 -1.53650105e+00 -1.05966067e+00 -3.69038439e+00 -2.50387073e+00 -3.11193085e+00 -2.55823684e+00 -2.37038994e+00 -9.31076467e-01 -1.24936032e+00 -6.33413851e-01 -4.62584496e+00 -5.25370216e+00 -1.89772403e+00 -1.53176808e+00 -2.95335746e+00 -3.71276903e+00 -3.25173259e+00 -3.46583939e+00 -1.39100301e+00 -1.35172570e+00 -9.68669832e-01 -2.92665148e+00 -3.36315489e+00 -2.75982785e+00 -6.36872053e+00 -4.72893715e+00 -3.63772917e+00 -5.59199572e+00 -4.90793896e+00 -4.43036604e+00 -4.09347439e+00 -2.18413711e+00 -4.82008123e+00 -1.57277799e+00 -2.79756999e+00 -3.38361573e+00 -3.25725126e+00 -1.62562108e+00 -2.26112866e+00 -4.46366358e+00 -1.81293094e+00 -1.56520557e+00 -1.57946777e+00 -1.83045352e+00 -1.23488593e+00 -1.92889845e+00 -1.83766389e+00 -2.32091498e+00 -1.72319841e+00 -2.33744836e+00 -4.87268829e+00 -2.07821488e+00 -2.21013784e+00 -2.84060383e+00 -2.93931127e+00 -3.27237296e+00 -3.23474860e+00 -2.81451821e+00 -3.21380806e+00 -2.03559875e+00 -1.88415956e+00 -1.22684634e+00 -2.06245160e+00 -4.56017065e+00 -3.93550897e+00 -1.26345861e+00 -3.36103201e+00 -4.25068903e+00 -4.85997152e+00 -3.55616713e+00 -2.90779591e+00 -3.76832128e+00 -1.82716322e+00 -1.47987437e+00 -1.33445394e+00 -2.75513458e+00 -4.26209593e+00 -3.10547233e+00 -4.56919146e+00 -3.12459111e+00 -2.89353418e+00 -3.26527786e+00 -6.35028839e+00 -5.16025496e+00 -3.44860291e+00 -1.67167270e+00 -2.65521169e+00 -3.46965790e+00 -2.27294588e+00 -2.75403953e+00 -2.64178300e+00 -3.70799565e+00 -2.83520865e+00 -4.77769184e+00 -2.29670286e+00 -7.68660486e-01 -2.24857831e+00 -1.30485141e+00 -1.36277199e+00 -1.50764978e+00 -2.08866024e+00 -2.82047200e+00 -3.04329228e+00 -2.35042620e+00 -3.40164757e+00 -3.78892159e+00 -3.19773531e+00 -1.72239840e+00 -4.49589443e+00 -3.21394706e+00 -3.38429308e+00 -3.16261673e+00 -3.10523701e+00 -2.04163790e+00 -1.80091941e+00 -2.04008865e+00 -1.12628365e+00 -1.99394369e+00 -7.04464793e-01 -2.32519269e+00 -5.12020922e+00 -1.95897007e+00 -2.75065923e+00 -2.29498911e+00 -4.32821941e+00 -3.64570951e+00 -8.59605014e-01 -2.39395761e+00 -3.53204918e+00 -1.83811021e+00 -2.42545295e+00 -4.29121733e+00 -5.94794321e+00 -3.80968738e+00 -3.02104688e+00 -4.34805059e+00 -2.35510659e+00 -2.01243806e+00 -2.62727356e+00 -4.49300337e+00 -3.50881577e+00 -2.93725920e+00 -3.60130286e+00 -1.70773745e+00 -3.19035029e+00 -2.70801187e+00 -5.42752981e+00 -2.15211964e+00 -2.02305627e+00 -4.38608313e+00 -2.98562407e+00 -1.32600009e+00 -1.86555994e+00 -1.63256633e+00 -2.38304615e+00 -2.10143280e+00 -2.97501040e+00 -2.62790155e+00 -1.85025287e+00 -2.83032870e+00 -4.80613279e+00 -2.35321307e+00 -2.50592852e+00 -2.21270061e+00 -1.40381694e+00 -1.70126331e+00 -2.24058867e+00 -4.82476616e+00 -3.23899436e+00 -2.94224501e+00 -2.12924099e+00 -2.32983541e+00 -1.83023465e+00 -1.70179105e+00 -2.50413561e+00 -7.03543842e-01 -1.57449210e+00 -4.33574152e+00 -5.28173637e+00 -2.25309515e+00 -1.59081221e+00 -4.45045519e+00 -4.15628529e+00 -1.47019565e+00 -5.27731657e+00 -1.55762434e+00 -1.49171484e+00 -3.59977674e+00 -6.07169390e+00 -4.46890545e+00 -4.52762651e+00 -3.24497962e+00 -4.79406881e+00 -1.07901740e+00 -3.23451853e+00 -4.12119341e+00 -3.82135344e+00 -5.44323397e+00 -1.43033171e+00 -1.64046454e+00 -2.47321033e+00 -3.57656121e+00 -4.21531057e+00 -2.19466019e+00 -3.22572041e+00 -2.24570966e+00 -2.07717156e+00 -1.09736001e+00 -1.64272392e+00 -1.29033136e+00 -2.11367106e+00 -1.64799535e+00 -2.09530616e+00 -3.45803452e+00 -2.66063952e+00 -3.25803566e+00 -4.27423334e+00 -3.53767157e+00 -3.93104362e+00 -2.06350136e+00 -2.17315245e+00 -2.06105137e+00 -1.66017711e+00 -2.13838935e+00 -2.42178249e+00 -2.30403328e+00 -3.77358413e+00 -2.00622892e+00 -1.88326335e+00 -2.14340472e+00 -1.80733895e+00 -2.28177452e+00 -3.49001408e-01 -4.73412800e+00 -2.23851871e+00 -8.16031277e-01 -2.44717383e+00 -2.71853137e+00 -9.27195191e-01 -1.97548378e+00 -5.62772322e+00 -4.42313957e+00 -3.06329846e+00 -2.15603662e+00 -3.57983661e+00 -5.99213409e+00 -2.21527982e+00 -4.94339180e+00 -3.04701757e+00 -3.10131979e+00 -5.08404827e+00 -6.14150953e+00 -2.63509297e+00 -1.68544734e+00 -2.33677697e+00 -3.27166915e+00 -4.78204918e+00 -4.25512409e+00 -1.43937600e+00 -1.99222565e+00 -3.04242563e+00 -2.32556820e+00 -5.73749304e+00 -3.00988722e+00 -2.23642826e+00 -2.50714135e+00 -1.58876324e+00 -3.00606251e+00 -1.66318369e+00 -1.49452245e+00 -1.91566336e+00 -3.07783318e+00 -4.24447727e+00 -2.48022795e+00 -2.38270307e+00 -2.63931680e+00 -2.70898175e+00 -2.57005191e+00 -2.33886385e+00 -2.59712219e+00 -2.08051372e+00 -2.00641990e+00 -2.30092430e+00 -1.67498159e+00 -2.49705744e+00 -2.39497638e+00 -2.02830052e+00 -2.25665212e+00 -2.45754266e+00 -1.48026252e+00 -2.24950552e+00 -2.10597062e+00 -2.87235928e+00 -3.48466396e+00 -9.26256061e-01 -1.09504092e+00 -7.49886811e-01 -2.26316428e+00 -2.32086563e+00 -1.74041963e+00 -5.39828062e+00 -3.82282495e+00 -1.07587886e+00 -3.93737435e+00 -3.79694796e+00 -2.61598992e+00 -2.18808460e+00 -2.71976733e+00 -4.38076305e+00 -4.55858612e+00 -2.38179517e+00 -3.02345634e+00 -8.10156059e+00 -2.26496720e+00 -2.33442569e+00 -9.16920066e-01 -2.42852998e+00 -2.97976851e+00 -1.17305899e+00 -1.74524939e+00 -1.63946366e+00 -2.09471154e+00 -2.76725340e+00 -1.93006539e+00 -2.05365562e+00 -2.43495965e+00 -2.63479924e+00 -3.68087983e+00 -1.80512238e+00 -1.72540057e+00 -3.95973372e+00 -1.86371779e+00 -2.64270973e+00 -2.17303061e+00 -4.07158995e+00 -2.37388682e+00 -1.16347218e+00 -3.08917522e+00 -2.37563586e+00 -1.99577951e+00 -2.37709761e+00 -2.33917022e+00 -2.97986126e+00 -1.17527771e+00 -3.08916330e+00 -3.05226588e+00 -1.86589468e+00 -2.74519873e+00 -1.34073591e+00 -2.86383224e+00 -1.83477485e+00 -2.08519793e+00 -1.20472765e+00 -2.41484070e+00 -5.12610531e+00 -1.78849864e+00 -1.28441775e+00 -2.58878636e+00 -1.16010571e+00 -2.93249965e+00 -4.34119320e+00 -3.69565845e+00 -2.53540230e+00 -1.45692658e+00 -1.86385155e+00 -5.15494823e+00 -2.80735946e+00 -4.26212692e+00 -3.33822465e+00 -5.32013226e+00 -5.84370041e+00 -4.14551353e+00 -4.89256477e+00 -2.82166862e+00 -1.35702944e+00 -2.64685202e+00 -1.99854589e+00 -2.35855389e+00 -1.04154551e+00 -2.11155510e+00 -1.13997090e+00 -3.79561377e+00 -3.37537766e+00 -2.80268621e+00 -2.39189243e+00 -3.01804256e+00 -2.07367611e+00 -3.14018917e+00 -2.01990962e+00 -5.26407385e+00 -4.93350792e+00 -4.57903147e+00 -3.01901603e+00 -1.96383190e+00 -2.48922539e+00 -1.49946296e+00 -2.48390985e+00 -1.46033311e+00 -2.66302872e+00 -2.68875504e+00 -1.70961547e+00 -3.74220753e+00 -2.07573986e+00 -1.39654839e+00 -2.48656368e+00 -2.24644160e+00 -2.84894824e+00 -2.13162518e+00 -1.62015808e+00 -1.83134162e+00 -1.85284328e+00 -1.54022002e+00 -1.21189022e+00 -2.63919973e+00 -5.30081224e+00 -7.78308928e-01 -9.11093175e-01 -1.19311142e+00 -1.53448224e+00 -2.53779864e+00 -1.01645327e+00 -2.98399472e+00 -2.84114051e+00 -2.18925667e+00 -3.26258707e+00 -6.25513077e+00 -5.40092325e+00 -4.26938534e+00 -1.99364460e+00 -3.72000813e+00 -1.92037046e+00 -2.31809044e+00 -2.34142852e+00 -1.44249213e+00 -2.73691416e+00 -2.21691585e+00 -8.90915334e-01 -1.29493141e+00 -9.15758312e-01 -2.75894284e+00 -2.67764163e+00 -1.88946295e+00 -3.77116132e+00 -1.89633226e+00 -2.23199201e+00 -1.66971672e+00 -1.43929935e+00 -4.12821102e+00 -1.79519022e+00 -3.35673428e+00 -3.32897973e+00 -2.78499007e+00 -2.27050185e+00 -1.61768937e+00 -1.68700552e+00 -3.77785516e+00 -1.96456826e+00 -1.54291701e+00 -2.14726043e+00 -1.70422518e+00 -2.36318278e+00 -3.02528191e+00 -1.46235085e+00 -1.55913246e+00 -2.26951170e+00 -1.38415456e+00 -2.24060631e+00 -3.15409160e+00 -1.86726189e+00 -1.84000373e+00 -2.00138044e+00 -1.93070304e+00 -2.31028390e+00 -1.62659192e+00 -2.16194105e+00 -1.12304711e+00 -3.79882312e+00 -3.31042433e+00 -1.52634180e+00 -1.74370396e+00 -1.90514588e+00 -2.98278165e+00 -1.07462287e+00 -1.83906996e+00 -2.89745903e+00 -2.48574281e+00 -1.65711129e+00 -1.59219408e+00 -3.52926826e+00 -4.68008995e+00 -3.39392543e+00 -4.60646677e+00 -2.60216594e+00 -2.40859532e+00 -1.27909553e+00 -1.73384690e+00 -1.84903336e+00 -9.68238056e-01 -1.40591705e+00 -1.51247001e+00 -1.63801301e+00 -3.07164478e+00 -2.58222795e+00 -2.44974852e+00 -6.04045105e+00 -1.96691215e+00 -2.67980838e+00 -1.72029757e+00 -2.02592683e+00 -1.11813533e+00 -2.18062806e+00 -1.98586667e+00 -3.64154100e+00 -2.80464530e+00 -3.41055202e+00 -3.73325443e+00 -3.18429208e+00 -3.29846311e+00 -2.26513577e+00 -2.73895860e+00 -2.25808072e+00 -1.82747996e+00 -1.41729128e+00 -1.54949129e+00 -2.35088229e+00 -2.10017967e+00 -2.36069322e+00 -1.69982815e+00 -2.20248628e+00 -1.56550395e+00 -2.26945400e+00 -2.64920735e+00 -2.55581617e+00 -3.92260551e+00 -1.70729041e+00 -3.49276042e+00 -1.17621553e+00 -2.30745983e+00 -2.21244287e+00 -2.06695938e+00 -2.94088221e+00 -2.70138645e+00 -2.67872047e+00 -3.74438763e+00 -9.42433238e-01 -3.15394568e+00 -2.60665417e+00 -1.56671119e+00 -1.00998950e+00 -1.50477302e+00 -1.60586274e+00 -1.33498752e+00 -8.21174085e-01 -3.46194959e+00 -3.20818162e+00 -5.31469297e+00 -6.04578876e+00 -1.70411408e+00 -2.21317840e+00 -2.52376795e+00 -2.87086105e+00 -2.01022458e+00 -1.41295671e+00 -1.45716953e+00 -2.25176764e+00 -2.14513063e+00 -1.18442225e+00 -1.44610047e+00 -2.63977265e+00 -2.65852356e+00 -3.23780060e+00 -2.56120420e+00 -2.01351786e+00 -1.93493748e+00 -2.31542134e+00 -1.54001415e+00 -1.35414791e+00 -1.10052466e+00 -2.43418837e+00 -2.29751420e+00 -1.64710808e+00 -4.05820990e+00 -2.42874241e+00 -2.02299643e+00 -2.80612922e+00 -2.52391291e+00 -2.29220915e+00 -1.39865553e+00 -2.00576043e+00 -1.73095202e+00 -1.86194003e+00 -3.44581389e+00 -2.99704099e+00 -3.72258067e+00 -3.13092375e+00 -4.01533461e+00 -2.81135392e+00 -2.02548504e+00 -2.45949817e+00 -4.86493683e+00 -1.68669546e+00 -2.63709569e+00 -1.16405404e+00 -1.67601275e+00 -2.95744729e+00 -2.93184376e+00 -2.07492471e+00 -2.12361789e+00 -2.77144027e+00 -3.52469110e+00 -2.58808041e+00 -2.43634629e+00 -1.51942873e+00 -3.74132776e+00 -2.02075195e+00 -1.62354469e+00 -2.41645598e+00 -1.39589417e+00 -1.83351111e+00 -5.12093067e-01 -2.96088290e+00 -8.10697258e-01 -3.68292546e+00 -4.13021421e+00 -3.94795370e+00 -3.53004265e+00 -1.81361032e+00 -2.10964322e+00 -4.48415995e+00 -3.53007364e+00 -2.15828443e+00 -1.54574847e+00 -1.49545705e+00 -2.10258055e+00 -2.59556246e+00 -2.03253984e+00 -3.18186092e+00 -2.73183656e+00 -3.54587102e+00 -1.14217532e+00 -2.44051385e+00 -1.57005155e+00 -1.67892385e+00 -3.23086905e+00 -1.29709184e+00 -1.89658248e+00 -1.90382075e+00 -1.06238258e+00 -1.75123775e+00 -1.12151778e+00 -1.57723927e+00 -2.15247726e+00 -1.46350610e+00 -2.34270024e+00 -4.42419481e+00 -2.23596025e+00 -3.38976336e+00 -4.81608105e+00 -3.63371730e+00 -2.32570601e+00 -4.00196123e+00 -4.32360601e+00 -2.62711596e+00 -3.90017200e+00 -4.47527504e+00 -3.08678150e+00 -2.10703635e+00 -4.33198404e+00 -3.76835012e+00 -1.66642284e+00 -2.69481182e+00 -2.08826065e+00 -4.22902298e+00 -4.02919006e+00 -2.59364343e+00 -3.70390248e+00 -2.41228247e+00 -1.57996058e+00 -2.78595853e+00 -6.82328999e-01 -1.37946498e+00 -1.86051822e+00 -2.02475214e+00 -4.31799459e+00 -1.03083539e+00 -1.77168751e+00 -1.71765447e+00 -3.04163027e+00 -2.73260832e+00 -2.10310793e+00 -2.07775736e+00 -2.14262438e+00 -1.89299119e+00 -1.74975777e+00 -1.43837333e+00 -2.64968348e+00 -9.38395321e-01 -1.47063434e+00 -2.19961572e+00 -4.03013897e+00 -2.38889718e+00 -1.81510901e+00 -1.93352139e+00 -2.63946104e+00 -2.15179682e+00 -4.81322384e+00 -3.67383409e+00 -3.59866643e+00 -3.39404464e+00 -1.72953331e+00 -2.55073762e+00 -2.17296314e+00 -3.49356127e+00 -2.85049725e+00 -1.64100063e+00 -1.74448264e+00 -1.09193718e+00 -2.72994947e+00 -2.96299505e+00 -1.36109257e+00 -1.94347787e+00 -1.62545192e+00 -1.97330034e+00 -2.00408387e+00 -2.77515483e+00 -2.07166696e+00 -3.30518723e+00 -1.72790587e+00 -2.75929379e+00 -4.18193674e+00 -2.43425560e+00 -2.56819510e+00 -3.78057122e+00 -3.74484420e+00 -2.33137226e+00 -5.66733694e+00 -3.96784568e+00 -2.70065784e+00 -2.02405977e+00 -2.21118355e+00 -2.73319459e+00 -2.53506517e+00 -4.01997328e+00 -2.18919539e+00 -3.24499917e+00 -2.27784228e+00 -4.29092360e+00 -3.55197072e+00 -3.67367220e+00 -1.01133800e+00 -2.88406968e+00 -2.76270866e+00 -2.35800934e+00 -4.55201238e-01 -7.88667262e-01 -1.05373180e+00 -4.78637552e+00 -3.35258961e+00 -1.74962568e+00 -2.21637249e+00 -8.03541422e-01 -3.32412505e+00 -2.76011300e+00 -4.49750662e+00 -3.29938269e+00 -7.05353618e-01 -3.28473043e+00 -1.15634060e+00 -2.03338552e+00 -1.89853787e+00 -1.90859389e+00 -2.39895010e+00 -1.83450699e+00 -1.85137391e+00 -2.05279541e+00 -1.34785104e+00 -3.27434373e+00 -5.73274946e+00 -5.23121309e+00 -3.26942015e+00 -2.53669143e+00 -3.20877814e+00 -7.64210129e+00 -4.25184011e+00 -3.54860997e+00 -4.22917223e+00 -3.78228354e+00 -3.22753906e+00 -3.74081874e+00 -1.63463616e+00 -2.87668586e+00 -1.77562439e+00 -1.78449893e+00 -1.94473302e+00 -5.70551682e+00 -3.12483287e+00 -2.86107469e+00 -2.97516584e+00 -2.58019829e+00 -2.09767890e+00 -1.65435946e+00 -1.50547993e+00 -2.27154899e+00 -3.52230334e+00 -1.87261283e+00 -4.19327164e+00 -2.76572251e+00 -3.95860267e+00 -3.26405382e+00 -2.54007363e+00 -2.80125284e+00 -4.41519976e+00 -2.78839087e+00 -2.85995245e+00 -4.93000555e+00 -3.98216939e+00 -4.04795599e+00 -2.20654845e+00 -2.61780953e+00 -3.00100136e+00 -1.47489500e+00 -3.95181704e+00 -4.13790226e+00 -2.95984721e+00 -2.37080431e+00 -2.10472703e+00 -3.35439324e+00 -3.10263228e+00 -2.62961364e+00 -6.64271784e+00 -1.62556100e+00 -2.71973252e+00 -2.36031842e+00 -1.4353075