<?xml version="1.0"?>
<VTKFile type="UnstructuredGrid"  byte_order="LittleEndian">
<UnstructuredGrid>
<Piece NumberOfPoints="16917" NumberOfCells=" 34882">
<Points>
<DataArray type="Float32" NumberOfComponents="3" format="ascii">
40.000000 0.000000 0.000000 39.692307 0.000000 0.000000 40.000000 0.307692 0.000000 39.750000 0.403846 0.000000 39.384617 0.000000 0.000000 39.442307 0.250000 0.000000 39.500000 0.500000 0.000000 40.000000 0.615385 0.000000 39.750000 0.707692 0.000000 39.076923 0.000000 0.000000 38.988461 0.250000 0.000000 39.200001 0.500000 0.000000 39.500000 0.800000 0.000000 40.000000 0.923077 0.000000 39.750000 1.011538 0.000000 38.461540 0.000000 0.000000 38.769230 0.000000 0.000000 38.900002 0.500000 0.000000 38.759617 0.250000 0.000000 38.153847 0.000000 0.000000 39.099998 0.700000 0.000000 39.275002 0.950000 0.000000 39.500000 1.100000 0.000000 40.000000 1.230769 0.000000 39.750000 1.315385 0.000000 37.846153 0.000000 0.000000 37.538460 0.000000 0.000000 38.825001 0.725000 0.000000 38.530769 0.250000 0.000000 38.599998 0.500000 0.000000 38.076923 0.250000 0.000000 38.959999 0.980000 0.000000 39.275002 1.175000 0.000000 39.500000 1.400000 0.000000 40.000000 1.538462 0.000000 39.750000 1.619231 0.000000 37.230770 0.000000 0.000000 37.773075 0.250000 0.000000 37.469231 0.250000 0.000000 38.700001 0.900000 0.000000 38.892498 1.208752 0.000000 38.500000 0.700000 0.000000 38.000000 0.500000 0.000000 38.428570 0.928571 0.000000 38.299999 0.500000 0.000000 39.250000 1.500000 0.000000 39.099998 1.300000 0.000000 39.500000 1.700000 0.000000 39.750000 1.848077 0.000000 40.000000 1.846154 0.000000 37.165386 0.250000 0.000000 36.615383 0.000000 0.000000 36.923077 0.000000 0.000000 37.700001 0.500000 0.000000 37.400002 0.500000 0.000000 38.599998 1.250000 0.000000 38.825001 1.437500 0.000000 37.924999 0.725000 0.000000 38.375000 1.175000 0.000000 38.150002 0.875000 0.000000 39.275002 1.812500 0.000000 39.049999 1.625000 0.000000 39.500000 2.000000 0.000000 40.000000 2.153846 0.000000 39.750000 2.076923 0.000000 38.799999 1.700000 0.000000 36.307693 0.000000 0.000000 36.936539 0.250000 0.000000 37.099998 0.500000 0.000000 36.403847 0.250000 0.000000 36.707691 0.250000 0.000000 37.610001 0.710000 0.000000 37.318180 0.718182 0.000000 38.450001 1.550000 0.000000 38.240002 1.340000 0.000000 37.820000 0.920000 0.000000 38.029999 1.130000 0.000000 39.266666 2.100000 0.000000 39.033333 1.900000 0.000000 39.500000 2.300000 0.000000 40.000000 2.461539 0.000000 39.750000 2.380769 0.000000 38.538635 1.788635 0.000000 38.845455 2.027273 0.000000 38.627274 2.027273 0.000000 38.299999 1.850000 0.000000 36.000000 0.000000 0.000000 36.099998 0.250000 0.000000 36.799999 0.500000 0.000000 37.007690 0.730769 0.000000 36.200001 0.500000 0.000000 36.500000 0.500000 0.000000 36.928570 0.928571 0.000000 37.500000 0.950000 0.000000 37.215385 0.915385 0.000000 38.190910 1.590909 0.000000 37.972729 1.372727 0.000000 37.754547 1.154545 0.000000 39.290001 2.390000 0.000000 39.063637 2.218182 0.000000 39.500000 2.600000 0.000000 39.281818 2.681818 0.000000 40.000000 2.769231 0.000000 39.750000 2.834615 0.000000 38.845455 2.245455 0.000000 38.046154 1.746154 0.000000 38.461540 2.161538 0.000000 38.669231 2.369231 0.000000 35.692307 0.000000 0.000000 38.253845 2.115385 0.000000 38.000000 2.000000 0.000000 35.646152 0.250000 0.000000 35.900002 0.500000 0.000000 36.714287 0.714286 0.000000 36.125000 0.706250 0.000000 36.419998 0.700000 0.000000 36.818748 1.118750 0.000000 37.142857 1.142857 0.000000 37.423077 1.192308 0.000000 37.838463 1.653846 0.000000 37.630768 1.330769 0.000000 38.900002 2.525000 0.000000 39.084614 2.784615 0.000000 39.500000 2.900000 0.000000 39.299999 2.975000 0.000000 40.000000 3.076923 0.000000 39.750000 3.138462 0.000000 38.428570 2.428571 0.000000 38.642857 2.642857 0.000000 37.643749 1.943750 0.000000 35.384617 0.000000 0.000000 37.849998 2.150000 0.000000 38.056252 2.356250 0.000000 35.342308 0.250000 0.000000 35.599998 0.500000 0.000000 35.816666 0.716667 0.000000 36.575001 1.118750 0.000000 36.033333 0.900000 0.000000 36.323528 0.923529 0.000000 36.747059 1.347059 0.000000 37.025002 1.325000 0.000000 37.231251 1.531250 0.000000 37.520000 1.700000 0.000000 38.857143 2.857143 0.000000 39.084614 3.038461 0.000000 39.500000 3.200000 0.000000 39.292309 3.269231 0.000000 40.000000 3.384615 0.000000 39.750000 3.442308 0.000000 38.150002 2.562500 0.000000 38.468750 2.768750 0.000000 38.599998 2.975000 0.000000 37.594116 2.194118 0.000000 37.382355 1.982353 0.000000 35.076923 0.000000 0.000000 35.038460 0.250000 0.000000 37.766666 2.500000 0.000000 37.983334 2.700000 0.000000 35.000000 0.500000 0.000000 35.299999 0.500000 0.000000 35.509998 0.710000 0.000000 35.720001 0.920000 0.000000 35.930000 1.130000 0.000000 36.466667 1.366667 0.000000 36.184212 1.321053 0.000000 36.683334 1.583333 0.000000 36.900002 1.700000 0.000000 37.170589 1.770588 0.000000 38.881248 3.181250 0.000000 39.049999 3.387500 0.000000 39.500000 3.500000 0.000000 39.275002 3.593750 0.000000 40.000000 3.692308 0.000000 39.750000 3.746154 0.000000 38.229412 2.829412 0.000000 38.652943 3.252941 0.000000 38.416668 3.100000 0.000000 37.116665 2.016667 0.000000 37.549999 2.450000 0.000000 37.333332 2.233333 0.000000 34.769230 0.000000 0.000000 34.809616 0.250000 0.000000 34.700001 0.500000 0.000000 37.731579 2.757895 0.000000 37.952633 2.963158 0.000000 34.796276 0.708019 0.000000 35.080997 0.708019 0.000000 35.440346 0.920131 0.000000 35.609123 1.127684 0.000000 35.849922 1.363549 0.000000 36.349998 1.550000 0.000000 36.048203 1.547971 0.000000 36.560001 1.760000 0.000000 36.847370 1.936842 0.000000 34.573151 0.911271 0.000000 34.492710 0.703013 0.000000 38.849998 3.500000 0.000000 39.076469 3.676471 0.000000 39.500000 3.800000 0.000000 39.288235 3.888235 0.000000 40.000000 4.000000 0.000000 39.750000 4.050000 0.000000 38.173683 3.168421 0.000000 38.633335 3.533333 0.000000 38.416668 3.316667 0.000000 37.400002 2.600000 0.000000 36.980000 2.180000 0.000000 37.189999 2.390000 0.000000 37.496967 2.815948 0.000000 34.461540 0.000000 0.000000 34.580769 0.250000 0.000000 34.400002 0.500000 0.000000 37.649166 3.044537 0.000000 37.838116 3.219988 0.000000 34.881039 0.920392 0.000000 35.143280 0.972794 0.000000 35.339626 1.211713 0.000000 35.624893 1.401651 0.000000 35.399864 1.439752 0.000000 35.769844 1.597098 0.000000 36.278412 1.757193 0.000000 35.996826 1.754387 0.000000 36.460224 2.044158 0.000000 36.720108 2.112078 0.000000 34.646492 1.120735 0.000000 34.392086 1.120735 0.000000 34.188354 0.696894 0.000000 34.285423 0.931835 0.000000 38.836842 3.784210 0.000000 39.066666 3.966667 0.000000 39.500000 4.100000 0.000000 39.283333 4.183333 0.000000 39.750000 4.353846 0.000000 40.000000 4.307693 0.000000 38.240002 3.440000 0.000000 38.450001 3.650000 0.000000 37.262360 2.874001 0.000000 37.058765 2.661688 0.000000 36.826397 2.448724 0.000000 37.268566 3.143843 0.000000 34.153847 0.000000 0.000000 34.276924 0.250000 0.000000 34.099998 0.500000 0.000000 37.566753 3.331179 0.000000 37.723598 3.476818 0.000000 37.930714 3.588384 0.000000 34.759407 1.292021 0.000000 35.147472 1.541915 0.000000 35.047951 1.252084 0.000000 35.433655 1.748774 0.000000 35.213692 1.773067 0.000000 35.640659 1.963984 0.000000 35.862881 2.001724 0.000000 36.573906 2.520466 0.000000 36.085110 2.039463 0.000000 36.360447 2.328316 0.000000 34.470875 1.331958 0.000000 34.156658 1.312564 0.000000 34.082802 1.104470 0.000000 33.895676 0.708476 0.000000 33.976707 0.922465 0.000000 34.560841 1.537971 0.000000 38.869999 4.070000 0.000000 38.609230 3.983607 0.000000 39.080002 4.280000 0.000000 39.500000 4.400000 0.000000 39.290001 4.490000 0.000000 39.750000 4.657692 0.000000 40.000000 4.615385 0.000000 38.137829 3.699950 0.000000 38.269135 3.921789 0.000000 36.993042 2.924849 0.000000 37.297237 3.528721 0.000000 36.787361 2.712618 0.000000 36.987076 3.422002 0.000000 36.894562 3.192274 0.000000 33.846153 0.000000 0.000000 33.823078 0.250000 0.000000 33.799999 0.500000 0.000000 37.875412 3.877674 0.000000 37.609081 3.733648 0.000000 38.381622 4.183004 0.000000 34.910023 1.666900 0.000000 34.613277 1.740597 0.000000 35.279911 2.004219 0.000000 34.993641 1.911439 0.000000 35.401653 2.179816 0.000000 35.726048 2.203651 0.000000 36.391708 2.795658 0.000000 36.261673 2.609616 0.000000 36.054668 2.394406 0.000000 34.267529 1.535999 0.000000 33.996674 1.524486 0.000000 33.881580 1.352486 0.000000 33.803650 1.135586 0.000000 33.590843 0.719068 0.000000 33.691975 0.916321 0.000000 34.341156 1.737885 0.000000 38.992374 4.494016 0.000000 38.684414 4.285337 0.000000 39.500000 4.700000 0.000000 39.202374 4.704016 0.000000 39.750000 4.961538 0.000000 40.000000 4.923077 0.000000 38.347431 4.449508 0.000000 38.101967 4.069151 0.000000 36.757393 2.953275 0.000000 37.073536 3.611960 0.000000 37.934803 4.216511 0.000000 37.496624 3.985864 0.000000 37.263599 3.832733 0.000000 36.521740 2.981700 0.000000 36.598351 3.235202 0.000000 36.849838 3.695199 0.000000 36.670761 3.464964 0.000000 33.538460 0.000000 0.000000 33.594231 0.250000 0.000000 33.500000 0.500000 0.000000 37.693405 4.096166 0.000000 38.130745 4.452432 0.000000 34.553246 1.993295 0.000000 34.751076 1.944164 0.000000 34.878750 2.234745 0.000000 35.077259 2.155981 0.000000 35.225185 2.408712 0.000000 35.572250 2.455621 0.000000 35.795345 2.557075 0.000000 36.164639 2.885967 0.000000 36.018440 2.658529 0.000000 34.069031 1.735173 0.000000 33.750080 1.704303 0.000000 33.683216 1.495811 0.000000 33.565762 1.276094 0.000000 33.284523 0.713066 0.000000 33.383690 0.901794 0.000000 34.190414 1.989679 0.000000 38.904747 4.708031 0.000000 38.607121 4.712047 0.000000 39.500000 5.000000 0.000000 39.202374 5.001576 0.000000 39.750000 5.190384 0.000000 40.000000 5.230769 0.000000 38.313240 4.716012 0.000000 37.073971 3.949045 0.000000 37.835110 4.470160 0.000000 37.385799 4.234415 0.000000 36.372356 3.243042 0.000000 36.839123 3.964795 0.000000 36.447170 3.484144 0.00000
[...]
<PointData>
<DataArray type="Float32" Name="V" NumberOfComponents="1" format="ascii">
-7.11468077e+00 -8.68466282e+00 -6.96875811e+00 -8.19524193e+00 -7.78398657e+00 -8.04800701e+00 -7.49319696e+00 -6.40724945e+00 -7.39235020e+00 -7.37563848e+00 -9.04458141e+00 -6.24112940e+00 -6.76872063e+00 -5.57245207e+00 -6.18388653e+00 -7.55534792e+00 -7.66312551e+00 -6.96020460e+00 -8.49624920e+00 -8.81212997e+00 -5.84927559e+00 -6.00352812e+00 -5.66556931e+00 -4.84777021e+00 -5.70486593e+00 -6.64561129e+00 -7.21429348e+00 -5.46101761e+00 -7.43741703e+00 -7.69345665e+00 -8.82581615e+00 -5.51408911e+00 -4.99363995e+00 -5.84510517e+00 -4.56125069e+00 -5.72851038e+00 -9.47470474e+00 -6.57854843e+00 -8.57715607e+00 -5.41261864e+00 -5.52955437e+00 -6.42086220e+00 -8.41871548e+00 -5.73813057e+00 -6.22454214e+00 -4.96834612e+00 -6.35879803e+00 -1.25226545e+01 -6.89024496e+00 -6.57659578e+00 -8.13559437e+00 -8.15478802e+00 -9.10834408e+00 -5.81680727e+00 -7.68187571e+00 -5.55370903e+00 -5.89777708e+00 -6.96627235e+00 -6.05860662e+00 -4.91942215e+00 -7.29387569e+00 -5.89007568e+00 -6.06349802e+00 -4.82491016e+00 -7.78766394e+00 -6.96961451e+00 -8.53949547e+00 -9.47252655e+00 -5.83367300e+00 -9.26628017e+00 -7.70375299e+00 -5.27510214e+00 -5.48369074e+00 -6.82084990e+00 -5.48551416e+00 -5.39473724e+00 -5.65441227e+00 -5.15597057e+00 -6.53415108e+00 -5.48428822e+00 -3.06680298e+00 -4.50346756e+00 -6.37904882e+00 -5.80483961e+00 -7.69185114e+00 -6.28538036e+00 -6.38856745e+00 -6.48170996e+00 -7.29257011e+00 -5.10695887e+00 -7.16486263e+00 -5.45751381e+00 -5.31310320e+00 -5.63552904e+00 -4.60049868e+00 -6.46158171e+00 -6.31544733e+00 -5.05591393e+00 -4.00940180e+00 -6.62736702e+00 -5.15466261e+00 -3.66071129e+00 -2.66561890e+00 -3.57396460e+00 -4.58991432e+00 -6.10538530e+00 -6.79419851e+00 -4.23687315e+00 -7.50927114e+00 -4.98289633e+00 -6.62681198e+00 -9.18164444e+00 -5.28463697e+00 -5.15204382e+00 -5.34320927e+00 -4.88981199e+00 -5.88389254e+00 -4.64793682e+00 -6.15329170e+00 -6.67429256e+00 -4.86520910e+00 -4.06521082e+00 -4.93595266e+00 -4.32227135e+00 -3.44845533e+00 -3.01651621e+00 -3.92751980e+00 -5.18420458e+00 -3.76766944e+00 -5.45144796e+00 -7.85200834e+00 -5.34772587e+00 -4.66359472e+00 -7.21826172e+00 -7.34681511e+00 -4.88265085e+00 -4.63836145e+00 -4.44608545e+00 -5.50013828e+00 -6.12876797e+00 -4.97058964e+00 -7.27205515e+00 -6.59871769e+00 -3.85421276e+00 -4.71444130e+00 -4.46561909e+00 -3.86702108e+00 -3.56867266e+00 -4.34181929e+00 -3.65179634e+00 -4.38781977e+00 -4.18885803e+00 -4.56444359e+00 -6.10861778e+00 -1.09426498e+01 -1.02106781e+01 -4.19647980e+00 -4.31524944e+00 -6.31945658e+00 -5.77331495e+00 -4.81321430e+00 -5.38268757e+00 -4.44732141e+00 -5.37502432e+00 -5.13477325e+00 -6.55823374e+00 -6.24120092e+00 -5.87282801e+00 -3.98963642e+00 -5.44877434e+00 -5.74986458e+00 -4.76498175e+00 -3.79252052e+00 -4.52872753e+00 -3.41927600e+00 -4.05482006e+00 -4.49492836e+00 -5.06666756e+00 -4.26943827e+00 -4.80278587e+00 -7.52074909e+00 -7.40492725e+00 -6.13483095e+00 -3.31421876e+00 -4.54094839e+00 -4.51542902e+00 -5.45972252e+00 -4.01952648e+00 -4.86912012e+00 -4.90617895e+00 -5.90526295e+00 -5.54086304e+00 -5.99491358e+00 -5.28641510e+00 -4.95741224e+00 -4.96653032e+00 -4.31065750e+00 -5.78809690e+00 -5.92044497e+00 -4.70510483e+00 -4.18625927e+00 -4.69359255e+00 -3.66622305e+00 -4.33174849e+00 -5.44422245e+00 -4.56451416e+00 -4.81231642e+00 -3.89684582e+00 -3.94193959e+00 -7.35702419e+00 -7.18503666e+00 -5.35550308e+00 -3.15028143e+00 -4.61863089e+00 -3.80772352e+00 -5.18919230e+00 -4.10571289e+00 -5.86446285e+00 -4.66377497e+00 -5.26197815e+00 -5.24484777e+00 -6.14106941e+00 -4.88526821e+00 -4.43905640e+00 -4.19987631e+00 -3.89750719e+00 -4.12112045e+00 -3.56430578e+00 -5.86129093e+00 -4.53129482e+00 -5.16608191e+00 -4.59656811e+00 -4.36523342e+00 -3.84744501e+00 -4.18974304e+00 -5.92115211e+00 -3.87418222e+00 -3.42393398e+00 -4.34425354e+00 -4.19006777e+00 -1.03311634e+01 -7.59283257e+00 -5.78337002e+00 -4.18623304e+00 -5.20950937e+00 -5.14399624e+00 -3.92054844e+00 -5.26776171e+00 -4.85547400e+00 -4.93401909e+00 -4.81041718e+00 -4.35784674e+00 -4.79095697e+00 -3.40989161e+00 -4.10656548e+00 -4.26160669e+00 -4.37132692e+00 -4.00373173e+00 -3.97932410e+00 -4.25589657e+00 -4.16421604e+00 -5.16596365e+00 -4.34608793e+00 -4.74288034e+00 -4.90056896e+00 -4.57932711e+00 -3.62208080e+00 -3.53846622e+00 -2.86375833e+00 -4.55644989e+00 -4.87820482e+00 -3.51340842e+00 -7.79859734e+00 -4.15883970e+00 -4.25064707e+00 -4.60546207e+00 -7.62770605e+00 -6.65654564e+00 -4.84642982e+00 -5.05812168e+00 -4.36407566e+00 -4.42446327e+00 -4.66918135e+00 -4.61761045e+00 -4.11219406e+00 -4.21843481e+00 -3.75776458e+00 -3.82130122e+00 -3.87648129e+00 -4.01585960e+00 -3.62988520e+00 -4.10037947e+00 -5.01410484e+00 -4.22743845e+00 -3.63336158e+00 -3.78675556e+00 -3.35294962e+00 -4.53094816e+00 -4.99834347e+00 -3.87080169e+00 -4.33752775e+00 -3.42809629e+00 -3.11697793e+00 -2.47839332e+00 -4.10499096e+00 -4.08571291e+00 -4.20755148e+00 -4.82000017e+00 -4.23374128e+00 -4.10515738e+00 -4.66048574e+00 -3.49234581e+00 -3.89404273e+00 -4.27179384e+00 -6.68457937e+00 -9.03429794e+00 -7.09338188e+00 -5.25765181e+00 -4.64753580e+00 -3.82013750e+00 -3.67941880e+00 -3.74210286e+00 -3.64093590e+00 -3.61186981e+00 -3.70584226e+00 -3.30995274e+00 -3.81863356e+00 -3.74102163e+00 -3.50129843e+00 -4.15021420e+00 -4.18268299e+00 -3.81309772e+00 -3.95100260e+00 -3.59421635e+00 -3.58419204e+00 -3.64010477e+00 -4.49746132e+00 -4.03158283e+00 -4.69007254e+00 -3.82989049e+00 -3.49138451e+00 -2.98045802e+00 -4.49858761e+00 -4.42616320e+00 -4.51823044e+00 -4.57945824e+00 -4.30480146e+00 -4.10431194e+00 -4.29581976e+00 -5.70447826e+00 -6.52375650e+00 -6.85686064e+00 -4.18093777e+00 -3.20393014e+00 -3.68522716e+00 -4.46568441e+00 -3.31465697e+00 -3.81370783e+00 -3.19246149e+00 -4.07812643e+00 -4.37445641e+00 -3.52759242e+00 -4.17202520e+00 -3.78781295e+00 -4.17823553e+00 -4.11615515e+00 -3.67721081e+00 -3.74488163e+00 -5.10430002e+00 -3.96087980e+00 -3.17730570e+00 -3.40737820e+00 -3.13180137e+00 -3.77519846e+00 -3.35566974e+00 -3.97720218e+00 -4.78314543e+00 -5.18231201e+00 -6.58732700e+00 -4.70031118e+00 -5.10569859e+00 -6.50448132e+00 -4.06177425e+00 -4.91844797e+00 -5.49647617e+00 -4.79445219e+00 -4.97807884e+00 -4.22197485e+00 -4.63085651e+00 -7.02981997e+00 -6.09098291e+00 -4.25040579e+00 -3.32578135e+00 -4.55418110e+00 -4.82678747e+00 -8.10428619e+00 -3.44363618e+00 -4.28879452e+00 -3.79732299e+00 -5.41403198e+00 -5.58568573e+00 -4.47629261e+00 -5.24205875e+00 -4.70645046e+00 -4.03811264e+00 -4.86101246e+00 -3.72401595e+00 -4.00268507e+00 -3.86582685e+00 -4.13850546e+00 -3.25788140e+00 -3.22713685e+00 -3.95304608e+00 -5.69596195e+00 -4.55540323e+00 -3.52429533e+00 -5.48350143e+00 -7.51075649e+00 -5.65156698e+00 -9.35787201e+00 -5.56094456e+00 -5.03389835e+00 -7.22538900e+00 -6.24523258e+00 -4.47304535e+00 -6.43792343e+00 -6.82609892e+00 -7.09646559e+00 -4.21542645e+00 -4.95505714e+00 -4.08349228e+00 -5.54066992e+00 -5.04222059e+00 -3.02885962e+00 -3.87570548e+00 -2.96974158e+00 -7.05418015e+00 -5.43820620e+00 -6.06788826e+00 -5.45835829e+00 -4.81432152e+00 -5.37060595e+00 -8.04048443e+00 -4.79030752e+00 -5.98384237e+00 -5.43882561e+00 -4.48342991e+00 -4.75051212e+00 -7.47419500e+00 -5.32871103e+00 -4.60166168e+00 -5.59926128e+00 -4.02897835e+00 -3.98287630e+00 -4.20374250e+00 -4.50575161e+00 -5.46655893e+00 -4.63276625e+00 -5.06353951e+00 -4.71179056e+00 -7.86469173e+00 -4.89195395e+00 -5.50198650e+00 -4.26171875e+00 -4.43155193e+00 -4.88450289e+00 -4.35695171e+00 -4.07437897e+00 -4.47587061e+00 -4.12394285e+00 -5.20420933e+00 -5.88148117e+00 -4.16699314e+00 -4.76185322e+00 -6.62863255e+00 -8.91765213e+00 -5.71672630e+00 -4.50189590e+00 -4.62267542e+00 -6.01438618e+00 -4.88030481e+00 -3.04717541e+00 -4.45852423e+00 -3.52978563e+00 -3.22182369e+00 -3.13624310e+00 -4.04253340e+00 -3.15172100e+00 -3.30765867e+00 -3.28653145e+00 -5.34595156e+00 -5.78339815e+00 -5.47883987e+00 -7.84981441e+00 -5.26341057e+00 -7.54594946e+00 -4.56370592e+00 -5.01790285e+00 -6.74023914e+00 -4.74807978e+00 -4.79048538e+00 -5.68241739e+00 -4.64290857e+00 -6.69706106e+00 -4.95076466e+00 -4.19357252e+00 -4.48781681e+00 -4.19398069e+00 -6.41752052e+00 -4.18262148e+00 -5.56175709e+00 -8.48640728e+00 -4.82091188e+00 -6.51210833e+00 -4.13104296e+00 -4.79489422e+00 -4.69140911e+00 -4.47680521e+00 -5.09415913e+00 -4.36467361e+00 -4.51090288e+00 -5.00333214e+00 -3.77278829e+00 -5.58208132e+00 -3.97504640e+00 -5.19313574e+00 -5.16118193e+00 -6.15336323e+00 -1.07767019e+01 -5.22944736e+00 -8.02700996e+00 -4.42957163e+00 -3.60260987e+00 -2.90055776e+00 -2.93163943e+00 -2.93819571e+00 -2.95379353e+00 -4.28389454e+00 -3.19419932e+00 -3.14950275e+00 -3.17222095e+00 -3.16102099e+00 -3.19433689e+00 -3.19222760e+00 -3.18763804e+00 -3.18100262e+00 -2.93425035e+00 -2.94474745e+00 -3.14370775e+00 -3.17344356e+00 -3.15953016e+00 -3.18354535e+00 -3.19088221e+00 -3.10480833e+00 -3.12574339e+00 -3.05805731e+00 -3.08199716e+00 -3.10978627e+00 -3.03324485e+00 -3.31059217e+00 -3.30722976e+00 -3.04590535e+00 -3.07106900e+00 -3.36473346e+00 -3.41299868e+00 -3.19966173e+00 -3.17462730e+00 -3.35987616e+00 -3.24587584e+00 -3.19693255e+00 -3.13906527e+00 -3.12891269e+00 -3.26940536e+00 -3.11948991e+00 -3.11160541e+00 -3.09899974e+00 -3.10112047e+00 -3.10519505e+00 -3.10116363e+00 -3.09924650e+00 -3.10562873e+00 -3.11273289e+00 -3.12278843e+00 -3.13521671e+00 -2.95777583e+00 -3.99057913e+00 -4.84576368e+00 -4.43310499e+00 -3.49898481e+00 -3.48133993e+00 -4.03091097e+00 -4.80778790e+00 -5.22143698e+00 -5.53478003e+00 -5.07611227e+00 -8.48407841e+00 -7.36290741e+00 -4.89268923e+00 -4.84806776e+00 -6.90488148e+00 -4.56172991e+00 -7.92329788e+00 -7.69557238e+00 -5.11884689e+00 -7.05553102e+00 -5.62123299e+00 -5.26614094e+00 -5.29657173e+00 -4.91464567e+00 -4.69150496e+00 -5.08247805e+00 -6.16863823e+00 -4.45969868e+00 -9.66889286e+00 -5.23870611e+00 -6.52540016e+00 -6.33346796e+00 -8.93356705e+00 -1.04049683e+01 -4.61963701e+00 -4.84065819e+00 -6.06982231e+00 -6.75822592e+00 -7.09341526e+00 -6.48060417e+00 -7.26453495e+00 -7.21029043e+00 -6.16481447e+00 -6.15927649e+00 -3.94230080e+00 -5.36138201e+00 -5.46496248e+00 -7.29016209e+00 -6.61799717e+00 -4.44360161e+00 -3.84089303e+00 -2.93869448e+00 -2.61658597e+00 -2.68438435e+00 -2.70097399e+00 -2.73749590e+00 -2.71647072e+00 -3.76064086e+00 -3.03514409e+00 -2.96155047e+00 -2.98209143e+00 -3.00358129e+00 -3.03271151e+00 -3.02151418e+00 -2.70386696e+00 -2.68655396e+00 -2.98585010e+00 -3.00698185e+00 -3.02259254e+00 -3.03210878e+00 -2.96001339e+00 -2.91399121e+00 -2.92006254e+00 -2.93564391e+00 -2.95855141e+00 -2.98254514e+00 -3.00789070e+00 -2.88778758e+00 -2.87670159e+00 -2.86143875e+00 -2.84842181e+00 -3.49388170e+00 -2.92429495e+00 -2.94037318e+00 -2.89419055e+00 -3.02974987e+00 -3.00677204e+00 -3.15046382e+00 -3.58591080e+00 -3.42992425e+00 -3.69948459e+00 -3.36716032e+00 -3.30527568e+00 -3.44357014e+00 -3.40553141e+00 -3.25116730e+00 -3.25200295e+00 -3.40070271e+00 -3.15571213e+00 -3.51718783e+00 -3.64720917e+00 -6.12032652e+00 -4.94751310e+00 -5.27255487e+00 -3.81646895e+00 -3.79426074e+00 -6.23469973e+00 -8.52203465e+00 -5.74776697e+00 -5.18566990e+00 -4.62430477e+00 -5.48995590e+00 -6.47471666e+00 -6.97141075e+00 -5.84509134e+00 -6.58921146e+00 -6.79843903e+00 -7.14320660e+00 -5.33371973e+00 -4.43915987e+00 -5.09353256e+00 -6.64355659e+00 -6.58750486e+00 -7.88417435e+00 -5.86404943e+00 -4.35669994e+00 -7.25511551e+00 -5.20295715e+00 -6.25028563e+00 -6.73291874e+00 -6.42924404e+00 -5.36727810e+00 -6.87688112e+00 -4.60039711e+00 -5.24277925e+00 -5.34981775e+00 -4.67834330e+00 -4.90936995e+00 -4.31399870e+00 -4.51896858e+00 -6.24528885e+00 -6.36519003e+00 -4.35197878e+00 -7.34928036e+00 -6.75603533e+00 -7.82211065e+00 -3.91353559e+00 -5.17164230e+00 -4.44121313e+00 -5.35327196e+00 -5.76232481e+00 -6.22819662e+00 -4.03988171e+00 -3.12887001e+00 -2.86747837e+00 -2.37606525e+00 -2.44364309e+00 -2.27760673e+00 -3.59113073e+00 -2.79591632e+00 -2.73143768e+00 -2.77148438e+00 -2.38761997e+00 -2.76735663e+00 -2.79211712e+00 -2.72722316e+00 -2.79445148e+00 -2.67802620e+00 -2.82379127e+00 -2.85525298e+00 -2.76052070e+00 -2.73334312e+00 -2.71292090e+00 -2.80666900e+00 -2.83704495e+00 -2.81886911e+00 -2.82719016e+00 -2.81222272e+00 -3.97695088e+00 -3.24728394e+00 -3.01589227e+00 -3.05804133e+00 -3.11880183e+00 -4.04712963e+00 -3.58542037e+00 -3.87510991e+00 -3.48987532e+00 -2.79883146e+00 -2.80053353e+00 -2.79875779e+00 -2.79826903e+00 -4.04393673e+00 -3.61918521e+00 -4.67546558e+00 -5.49146700e+00 -7.03863955e+00 -4.56080246e+00 -4.25708485e+00 -6.03478718e+00 -4.87107897e+00 -6.50955391e+00 -8.18281651e+00 -5.15265274e+00 -9.86953354e+00 -4.92696476e+00 -6.92017698e+00 -5.21198988e+00 -5.06657457e+00 -5.24092102e+00 -4.17208290e+00 -5.51264954e+00 -6.01338768e+00 -4.16846371e+00 -4.25877237e+00 -6.00787830e+00 -6.17478704e+00 -5.45308304e+00 -6.78053474e+00 -5.71672201e+00 -4.72824860e+00 -4.49766350e+00 -5.19512892e+00 -4.94332123e+00 -6.93284607e+00 -4.70567179e+00 -5.99325514e+00 -7.23716927e+00 -4.43556404e+00 -4.73453856e+00 -4.04873514e+00 -4.46332073e+00 -6.34282160e+00 -6.64649296e+00 -5.00781393e+00 -6.81815577e+00 -7.78141785e+00 -6.85541010e+00 -3.71138120e+00 -5.86454153e+00 -6.91310549e+00 -5.15995789e+00 -5.13881826e+00 -5.61285496e+00 -3.95458555e+00 -2.75869584e+00 -2.15417981e+00 -3.95392108e+00 -2.47715974e+00 -2.21209145e+00 -2.48908019e+00 -2.41238570e+00 -2.62796474e+00 -2.55931330e+00 -2.69084263e+00 -2.69939733e+00 -2.58119392e+00 -2.68759441e+00 -2.68817019e+00 -2.69034815e+00 -2.80286741e+00 -2.88822007e+00 -2.95278668e+00 -2.90194392e+00 -3.14176869e+00 -4.49486589e+00 -3.35995197e+00 -3.22123742e+00 -4.21833515e+00 -3.56168199e+00 -3.70985603e+00 -2.87692165e+00 -2.79918289e+00 -2.87545466e+00 -2.79588056e+00 -2.79845548e+00 -2.78338432e+00 -2.79084992e+00 -5.27323771e+00 -5.71323681e+00 -6.20787668e+00 -4.66412210e+00 -5.16422653e+00 -5.87261295e+00 -4.46821976e+00 -6.43128824e+00 -4.44366455e+00 -4.21237326e+00 -5.90625381e+00 -7.35806751e+00 -5.12999630e+00 -6.15229034e+00 -3.85625935e+00 -5.51469374e+00 -4.47799397e+00 -8.17781162e+00 -7.52580643e+00 -6.01351929e+00 -6.16423655e+00 -5.11898947e+00 -4.74749279e+00 -4.35932255e+00 -4.37873507e+00 -5.63904905e+00 -5.70488358e+00 -4.49036598e+00 -5.99745893e+00 -5.37342262e+00 -5.76449347e+00 -4.56711149e+00 -4.92105484e+00 -5.46042490e+00 -5.09860849e+00 -4.77168941e+00 -4.74788284e+00 -3.66784954e+00 -4.00927734e+00 -5.02517414e+00 -5.04402971e+00 -5.30679274e+00 -4.94250679e+00 -5.10739994e+00 -3.73724198e+00 -4.05409765e+00 -3.73957705e+00 -5.94025230e+00 -5.37564659e+00 -7.45433140e+00 -4.53819895e+00 -5.92498159e+00 -6.82113838e+00 -4.93037558e+00 -4.95208263e+00 -6.28866148e+00 -6.20539713e+00 -4.73031139e+00 -4.29372168e+00 -2.86888242e+00 -2.28948116e+00 -2.21821713e+00 -2.32315993e+00 -2.41519213e+00 -2.51667929e+00 -2.68582559e+00 -2.69012427e+00 -2.51771212e+00 -2.52494264e+00 -2.66113448e+00 -2.67654085e+00 -2.63879919e+00 -3.00819588e+00 -3.02265716e+00 -3.33155966e+00 -4.63604879e+00 -4.03981590e+00 -3.46377754e+00 -3.80059338e+00 -2.99352813e+00 -2.93935108e+00 -2.99141788e+00 -2.75760674e+00 -2.77238512e+00 -2.88417888e+00 -2.86759973e+00 -2.73913717e+00 -2.71683407e+00 -2.68988585e+00 -6.08288813e+00 -5.38762140e+00 -6.73152494e+00 -4.97149324e+00 -6.45843267e+00 -5.43993950e+00 -6.92979574e+00 -4.90279388e+00 -4.52115774e+00 -4.11687613e+00 -4.86961842e+00 -4.81378317e+00 -5.81442022e+00 -3.75745487e+00 -5.93198586e+00 -7.24424934e+00 -5.99279499e+00 -6.27155828e+00 -4.43130493e+00 -6.77768898e+00 -6.61599445e+00 -4.29055071e+00 -5.37587833e+00 -6.10313272e+00 -4.91675520e+00 -5.24632311e+00 -5.07332754e+00 -5.02477169e+00 -5.86142302e+00 -4.58879995e+00 -4.76551580e+00 -4.06580734e+00 -5.07917786e+00 -3.83206511e+00 -3.75325465e+00 -4.04852247e+00 -4.80812883e+00 -6.07563114e+00 -6.29095030e+00 -8.18029499e+00 -7.84132910e+00 -5.54706621e+00 -5.49660444e+00 -4.82200480e+00 -7.09670830e+00 -4.13234329e+00 -4.14566231e+00 -4.21921444e+00 -5.57527447e+00 -7.57254696e+00 -8.35577774e+00 -5.20009232e+00 -6.52386475e+00 -4.47442341e+00 -8.14213467e+00 -6.34964943e+00 -5.68353176e+00 -4.30013561e+00 -4.17247629e+00 -2.94402814e+00 -2.14835835e+00 -2.29570079e+00 -2.53092790e+00 -2.31902266e+00 -2.51692080e+00 -5.36140823e+00 -2.59781241e+00 -2.48066401e+00 -3.27146912e+00 -3.50729322e+00 -4.23290253e+00 -3.86249256e+00 -3.73978639e+00 -3.15940166e+00 -3.11577916e+00 -2.62574625e+00 -2.65909219e+00 -2.83994555e+00 -3.05791259e+00 -2.77121067e+00 -4.21270514e+00 -5.10311222e+00 -4.76008415e+00 -4.21366549e+00 -3.64293408e+00 -6.36222506e+00 -5.95349550e+00 -4.74759102e+00 -5.94176722e+00 -4.80349922e+00 -5.47749376e+00 -5.40536165e+00 -4.34016085e+00 -4.38336515e+00 -5.23929262e+00 -4.61862230e+00 -5.44528627e+00 -6.01745272e+00 -6.82481909e+00 -4.99543333e+00 -5.71882868e+00 -6.69736433e+00 -4.93630409e+00 -5.80858231e+00 -6.15506744e+00 -4.52706432e+00 -5.17465544e+00 -4.62541199e+00 -5.10122252e+00 -4.54538202e+00 -4.70181990e+00 -4.28821898e+00 -5.29252958e+00 -4.99736118e+00 -4.99869633e+00 -5.45069933e+00 -9.61496162e+00 -5.08774662e+00 -6.10335779e+00 -1.14047966e+01 -5.07331085e+00 -5.65031815e+00 -7.45702791e+00 -7.09638929e+00 -6.36134529e+00 -4.48511887e+00 -5.08624887e+00 -4.60801554e+00 -4.33131361e+00 -7.53917217e+00 -6.36951876e+00 -7.02421188e+00 -6.04130697e+00 -4.69875240e+00 -5.02805376e+00 -3.78411961e+00 -3.79462028e+00 -6.47410345e+00 -4.60184002e+00 -2.87130547e+00 -2.22388673e+00 -2.35535789e+00 -5.46047163e+00 -2.58967829e+00 -2.54888606e+00 -2.42468953e+00 -2.34373856e+00 -3.42765498e+00 -3.65494132e+00 -3.70011926e+00 -3.65704751e+00 -3.30069947e+00 -2.68066359e+00 -2.91208172e+00 -3.77435303e+00 -4.10321236e+00 -3.80223608e+00 -3.61783862e+00 -6.88276815e+00 -6.90963745e+00 -5.98682690e+00 -6.88713455e+00 -1.00189524e+01 -7.25941658e+00 -5.13415289e+00 -5.37187767e+00 -5.47364712e+00 -4.61202288e+00 -5.38276434e+00 -8.02118874e+00 -5.63069820e+00 -5.22164679e+00 -5.95224667e+00 -5.02204132e+00 -5.10920525e+00 -8.78564167e+00 -6.28977537e+00 -8.12753773e+00 -5.40046787e+00 -4.36697245e+00 -5.02881670e+00 -5.15839338e+00 -5.69030666e+00 -6.28183031e+00 -5.04989386e+00 -5.92603779e+00 -5.61095619e+00 -5.78830767e+00 -8.06916428e+00 -6.72740746e+00 -7.24687147e+00 -4.66493702e+00 -4.23685312e+00 -4.84341478e+00 -6.94757366e+00 -7.99609232e+00 -7.44341660e+00 -6.04354572e+00 -5.65578985e+00 -1.01656771e+01 -8.39250183e+00 -5.92615509e+00 -7.06397057e+00 -4.56278706e+00 -4.60815477e+00 -9.13617897e+00 -5.40693045e+00 -5.67877436e+00 -4.31229973e+00 -3.08981800e+00 -2.95696592e+00 -5.36831141e+00 -4.77526045e+00 -3.42548275e+00 -2.38316989e+00 -3.61353064e+00 -2.53161812e+00 -2.28924155e+00 -3.38909364e+00 -3.61678433e+00 -2.86042953e+00 -3.34121132e+00 -5.42365408e+00 -4.01705647e+00 -4.12980080e+00 -6.39960003e+00 -5.94122171e+00 -5.73846626e+00 -7.59427023e+00 -6.80549669e+00 -4.72985268e+00 -4.71954250e+00 -8.35850143e+00 -6.27170038e+00 -6.95750380e+00 -4.97315836e+00 -5.73495531e+00 -5.42873049e+00 -6.07937765e+00 -6.42996407e+00 -4.91280985e+00 -7.50195694e+00 -7.75665522e+00 -7.02978325e+00 -5.84176207e+00 -5.37689114e+00 -6.78989601e+00 -5.55679226e+00 -6.20921564e+00 -5.59406757e+00 -6.80501652e+00 -6.05516911e+00 -6.73502445e+00 -7.34010220e+00 -6.77487469e+00 -5.36313915e+00 -5.05992889e+00 -5.54575777e+00 -5.03596258e+00 -7.51532745e+00 -5.37277412e+00 -4.88376188e+00 -7.38386011e+00 -6.11669445e+00 -4.95914173e+00 -6.03770065e+00 -5.55744123e+00 -6.31639004e+00 -7.15244102e+00 -5.61320400e+00 -5.65960741e+00 -4.83950853e+00 -5.66144991e+00 -5.91093254e+00 -5.15116215e+00 -6.02053165e+00 -4.73147488e+00 -6.28719664e+00 -5.87024736e+00 -3.48835945e+00 -2.47209883e+00 -2.69938064e+00 -2.61649060e+00 -6.90479040e+00 -6.02494049e+00 -4.04508591e+00 -2.99782205e+00 -2.42574930e+00 -2.27909684e+00 -3.29113460e+00 -2.54614758e+00 -4.46677017e+00 -6.09592962e+00 -6.0670523