<?xml version="1.0"?>
<VTKFile type="UnstructuredGrid"  byte_order="LittleEndian">
<UnstructuredGrid>
<Piece NumberOfPoints="17145" NumberOfCells=" 35338">
<Points>
<DataArray type="Float32" NumberOfComponents="3" format="ascii">
40.000000 40.000000 0.000000 39.692307 40.000000 0.000000 40.000000 39.692307 0.000000 39.384617 40.000000 0.000000 40.000000 39.384617 0.000000 39.596153 39.750000 0.000000 39.750000 39.596153 0.000000 39.076923 40.000000 0.000000 38.153847 40.000000 0.000000 37.846153 40.000000 0.000000 38.461540 40.000000 0.000000 38.769230 40.000000 0.000000 39.292309 39.750000 0.000000 40.000000 39.076923 0.000000 39.750000 39.292309 0.000000 39.500000 39.500000 0.000000 37.538460 40.000000 0.000000 37.773075 39.750000 0.000000 38.988461 39.750000 0.000000 38.759617 39.750000 0.000000 38.226925 39.750000 0.000000 38.530769 39.750000 0.000000 38.000000 39.500000 0.000000 39.200001 39.500000 0.000000 40.000000 38.769230 0.000000 39.750000 38.988461 0.000000 39.500000 39.200001 0.000000 39.750000 38.759617 0.000000 37.230770 40.000000 0.000000 37.469231 39.750000 0.000000 37.700001 39.500000 0.000000 40.000000 38.461540 0.000000 37.900002 39.266666 0.000000 38.900002 39.500000 0.000000 38.599998 39.500000 0.000000 38.299999 39.500000 0.000000 38.187500 39.275002 0.000000 39.049999 39.275002 0.000000 39.750000 38.530769 0.000000 39.500000 38.900002 0.000000 39.200001 39.049999 0.000000 39.500000 38.599998 0.000000 36.923077 40.000000 0.000000 37.165386 39.750000 0.000000 37.400002 39.500000 0.000000 37.590908 39.281818 0.000000 40.000000 38.153847 0.000000 39.750000 38.226925 0.000000 37.781818 39.063637 0.000000 38.150002 39.049999 0.000000 38.779999 39.259998 0.000000 38.500000 39.099998 0.000000 38.959999 39.020000 0.000000 39.500000 38.299999 0.000000 39.139999 38.779999 0.000000 39.299999 38.500000 0.000000 36.615383 40.000000 0.000000 36.861538 39.750000 0.000000 37.099998 39.500000 0.000000 37.318180 39.281818 0.000000 37.536366 39.063637 0.000000 40.000000 37.846153 0.000000 39.750000 37.923077 0.000000 39.500000 38.000000 0.000000 38.029999 38.869999 0.000000 37.754547 38.845455 0.000000 38.375000 38.825001 0.000000 38.750000 38.900002 0.000000 38.857143 38.642857 0.000000 39.285713 38.214287 0.000000 39.071430 38.428570 0.000000 36.307693 40.000000 0.000000 36.557693 39.750000 0.000000 36.799999 39.500000 0.000000 37.007690 39.292309 0.000000 37.215385 39.084614 0.000000 37.423077 38.876923 0.000000 40.000000 37.538460 0.000000 39.750000 37.619232 0.000000 37.630768 38.669231 0.000000 39.500000 37.700001 0.000000 39.275002 37.924999 0.000000 38.240002 38.660000 0.000000 37.972729 38.627274 0.000000 38.599998 38.599998 0.000000 38.825001 38.375000 0.000000 39.049999 38.150002 0.000000 36.000000 40.000000 0.000000 36.253845 39.750000 0.000000 36.500000 39.500000 0.000000 36.714287 39.285713 0.000000 36.928570 39.071430 0.000000 37.142857 38.857143 0.000000 37.357143 38.642857 0.000000 35.692307 40.000000 0.000000 35.384617 40.000000 0.000000 40.000000 37.230770 0.000000 39.750000 37.315384 0.000000 39.500000 37.400002 0.000000 37.571430 38.428570 0.000000 37.838463 38.461540 0.000000 39.290001 37.610001 0.000000 39.080002 37.820000 0.000000 38.450001 38.450001 0.000000 38.190910 38.409092 0.000000 38.660000 38.240002 0.000000 38.869999 38.029999 0.000000 35.950001 39.750000 0.000000 36.200001 39.500000 0.000000 36.406250 39.275002 0.000000 36.612499 39.087502 0.000000 36.818748 38.881248 0.000000 37.025002 38.674999 0.000000 37.231251 38.468750 0.000000 35.646152 39.750000 0.000000 35.076923 40.000000 0.000000 35.342308 39.750000 0.000000 40.000000 36.923077 0.000000 39.750000 37.011539 0.000000 39.500000 37.099998 0.000000 39.275002 37.299999 0.000000 37.437500 38.262501 0.000000 37.785713 38.214287 0.000000 38.046154 38.253845 0.000000 37.643749 38.056252 0.000000 39.049999 37.500000 0.000000 38.845455 37.754547 0.000000 38.409092 38.190910 0.000000 38.627274 37.972729 0.000000 38.253845 38.046154 0.000000 35.900002 39.500000 0.000000 36.111763 39.288235 0.000000 36.323528 39.076469 0.000000 36.535294 38.864704 0.000000 36.747059 38.652943 0.000000 36.958824 38.441177 0.000000 37.170589 38.229412 0.000000 35.599998 39.500000 0.000000 34.769230 40.000000 0.000000 35.038460 39.750000 0.000000 35.299999 39.500000 0.000000 39.500000 36.799999 0.000000 40.000000 36.615383 0.000000 39.750000 36.557693 0.000000 39.292309 37.007690 0.000000 39.084614 37.099998 0.000000 37.299999 37.983334 0.000000 37.900002 37.959999 0.000000 37.500000 37.766666 0.000000 38.876923 37.192307 0.000000 38.773075 37.411541 0.000000 38.669231 37.630768 0.000000 38.461540 37.838463 0.000000 38.099998 37.740002 0.000000 35.816666 39.283333 0.000000 36.033333 39.066666 0.000000 36.250000 38.849998 0.000000 36.466667 38.633335 0.000000 36.683334 38.416668 0.000000 37.036842 37.952633 0.000000 36.831577 38.173683 0.000000 35.500000 39.285713 0.000000 34.461540 40.000000 0.000000 34.734615 39.750000 0.000000 35.000000 39.500000 0.000000 35.214287 39.285713 0.000000 34.153847 40.000000 0.000000 39.292309 36.730770 0.000000 39.500000 36.500000 0.000000 40.000000 36.307693 0.000000 39.750000 36.253845 0.000000 38.900002 36.860001 0.000000 37.242104 37.731579 0.000000 37.805882 37.594116 0.000000 37.447369 37.510525 0.000000 38.674999 37.025002 0.000000 38.500000 37.299999 0.000000 38.299999 37.520000 0.000000 38.017647 37.382355 0.000000 35.700001 39.071430 0.000000 35.900002 38.857143 0.000000 36.099998 38.642857 0.000000 36.299999 38.428570 0.000000 36.900002 37.785713 0.000000 36.500000 38.214287 0.000000 36.700001 38.000000 0.000000 35.428570 39.071430 0.000000 34.430771 39.750000 0.000000 34.700001 39.500000 0.000000 34.908695 39.291306 0.000000 35.117390 39.082607 0.000000 34.126923 39.750000 0.000000 33.846153 40.000000 0.000000 39.087502 36.612499 0.000000 39.293751 36.406250 0.000000 39.500000 36.200001 0.000000 40.000000 36.000000 0.000000 39.750000 36.025002 0.000000 38.652943 36.747059 0.000000 38.864704 36.535294 0.000000 37.099998 37.571430 0.000000 37.652630 37.289474 0.000000 37.299999 37.357143 0.000000 38.441177 36.958824 0.000000 37.857895 37.068420 0.000000 38.229412 37.170589 0.000000 35.642857 38.857143 0.000000 35.857143 38.642857 0.000000 36.071430 38.428570 0.000000 36.285713 38.214287 0.000000 36.786957 37.413044 0.000000 36.578262 37.621738 0.000000 36.369564 37.830433 0.000000 36.160870 38.039131 0.000000 35.326088 38.873913 0.000000 34.400002 39.500000 0.000000 35.037498 38.862499 0.000000 34.612499 39.287498 0.000000 34.825001 39.075001 0.000000 33.538460 40.000000 0.000000 34.099998 39.500000 0.000000 33.823078 39.750000 0.000000 38.416668 36.683334 0.000000 39.076469 36.323528 0.000000 39.500000 35.900002 0.000000 39.293751 36.125000 0.000000 40.000000 35.692307 0.000000 39.750000 35.796154 0.000000 38.633335 36.466667 0.000000 38.849998 36.250000 0.000000 37.045456 37.318180 0.000000 36.737499 37.162498 0.000000 37.553589 37.085648 0.000000 37.250000 37.099998 0.000000 37.758492 36.866028 0.000000 38.063156 36.847370 0.000000 35.534782 38.665218 0.000000 35.743477 38.456520 0.000000 35.952175 38.247826 0.000000 36.525002 37.375000 0.000000 35.887501 38.012501 0.000000 36.312500 37.587502 0.000000 36.099998 37.799999 0.000000 36.476002 37.124001 0.000000 35.180000 38.480000 0.000000 33.230770 40.000000 0.000000 34.964001 38.636002 0.000000 34.315998 39.284000 0.000000 34.748001 38.852001 0.000000 34.532001 39.068001 0.000000 33.519230 39.750000 0.000000 34.011112 39.288887 0.000000 33.799999 39.500000 0.000000 38.240002 36.560001 0.000000 38.450001 36.349998 0.000000 39.099998 36.033333 0.000000 39.500000 35.599998 0.000000 39.299999 35.816666 0.000000 40.000000 35.384617 0.000000 39.750000 35.342308 0.000000 38.660000 36.139999 0.000000 38.869999 35.930000 0.000000 36.692001 36.908001 0.000000 36.950001 36.950001 0.000000 37.454544 36.881817 0.000000 37.162498 36.737499 0.000000 37.659092 36.663635 0.000000 37.863636 36.445454 0.000000 35.396000 38.276001 0.000000 35.612000 38.071999 0.000000 36.259998 37.340000 0.000000 35.827999 37.771999 0.000000 36.043999 37.556000 0.000000 36.122223 37.177776 0.000000 36.333332 36.966667 0.000000 32.923077 40.000000 0.000000 35.066666 38.233334 0.000000 34.855556 38.444443 0.000000 33.215385 39.750000 0.000000 34.644444 38.655556 0.000000 34.222221 39.077778 0.000000 34.433334 38.866665 0.000000 33.500000 39.500000 0.000000 33.913792 39.065517 0.000000 33.706898 39.282757 0.000000 32.911537 39.750000 0.000000 38.068180 36.227272 0.000000 38.272728 36.009090 0.000000 39.089474 35.742104 0.000000 39.750000 35.038460 0.000000 39.500000 35.299999 0.000000 39.294735 35.521053 0.000000 40.000000 35.076923 0.000000 38.857143 35.642857 0.000000 38.477272 35.790909 0.000000 36.544445 36.755554 0.000000 36.799999 36.650002 0.000000 37.375000 36.525002 0.000000 37.007690 36.430771 0.000000 37.587502 36.312500 0.000000 37.830433 36.173912 0.000000 35.277779 38.022221 0.000000 35.488888 37.811111 0.000000 35.642857 37.464287 0.000000 35.911110 37.388889 0.000000 35.857143 37.142857 0.000000 36.071430 36.928570 0.000000 36.285713 36.714287 0.000000 34.948277 37.979309 0.000000 32.615383 40.000000 0.000000 32.307693 40.000000 0.000000 32.682693 39.750000 0.000000 34.741379 38.196552 0.000000 34.534481 38.413792 0.000000 33.200001 39.500000 0.000000 34.327587 38.631035 0.000000 34.120689 38.848274 0.000000 33.830002 38.869999 0.000000 33.410000 39.290001 0.000000 33.619999 39.080002 0.000000 32.900002 39.500000 0.000000 38.039131 35.952175 0.000000 38.247826 35.730434 0.000000 39.099998 35.428570 0.000000 39.750000 34.809616 0.000000 39.500000 35.000000 0.000000 39.299999 35.214287 0.000000 38.873913 35.326088 0.000000 40.000000 34.769230 0.000000 38.456520 35.508698 0.000000 36.500000 36.500000 0.000000 36.714287 36.285713 0.000000 37.215385 36.211540 0.000000 36.928570 36.071430 0.000000 37.423077 35.992310 0.000000 37.630768 35.773075 0.000000 35.155174 37.762070 0.0000
[...]
<PointData>
<DataArray type="Float32" Name="V" NumberOfComponents="1" format="ascii">
-3.00348043e+00 -4.17762852e+00 -3.03168869e+00 -3.98989558e+00 -2.65562534e+00 -6.29813385e+00 -4.44595480e+00 -4.10376740e+00 -4.69973660e+00 -5.66943216e+00 -4.67486191e+00 -6.53070831e+00 -3.72119880e+00 -2.28846335e+00 -2.77464700e+00 -3.76208472e+00 -5.27347946e+00 -5.01736546e+00 -4.83623219e+00 -5.15144587e+00 -4.28971243e+00 -4.38904667e+00 -2.98925662e+00 -3.35055494e+00 -3.75798464e+00 -2.76040006e+00 -2.58040071e+00 -4.18220234e+00 -4.97902584e+00 -4.50255013e+00 -3.60440660e+00 -4.32894278e+00 -2.60304046e+00 -3.63941383e+00 -3.22759128e+00 -3.35204744e+00 -2.28639603e+00 -3.57182384e+00 -5.67871666e+00 -3.41913748e+00 -3.57427168e+00 -5.96362686e+00 -6.70436287e+00 -4.83020973e+00 -3.19616890e+00 -2.46023369e+00 -2.45110631e+00 -3.05482364e+00 -2.95738029e+00 -2.62258530e+00 -2.26375103e+00 -3.34739232e+00 -3.15416646e+00 -3.27754855e+00 -4.98024368e+00 -4.37793827e+00 -6.13311338e+00 -5.39879131e+00 -3.43915224e+00 -2.60903764e+00 -2.45678759e+00 -2.88775635e+00 -3.10034084e+00 -3.38570952e+00 -4.52939177e+00 -3.95038056e+00 -4.35308361e+00 -3.45500875e+00 -5.05117607e+00 -2.77672577e+00 -5.34970856e+00 -5.84717083e+00 -5.05507183e+00 -3.43334723e+00 -2.41289186e+00 -2.92413092e+00 -3.69092226e+00 -6.17381668e+00 -5.57569599e+00 -8.37647152e+00 -5.93037462e+00 -3.00337744e+00 -5.92285347e+00 -4.76565266e+00 -4.86148167e+00 -3.06842232e+00 -3.31243849e+00 -5.23983192e+00 -4.92256308e+00 -3.49239945e+00 -2.67804098e+00 -2.37940121e+00 -4.06526804e+00 -5.57028151e+00 -4.50553513e+00 -5.89577579e+00 -2.61719441e+00 -3.57226539e+00 -4.29715157e+00 -2.95037198e+00 -4.38998079e+00 -8.35724545e+00 -3.78966117e+00 -5.23100662e+00 -3.18586850e+00 -2.88148618e+00 -3.11421847e+00 -4.83859444e+00 -3.19542527e+00 -2.48780203e+00 -2.87716436e+00 -3.40045619e+00 -6.59689140e+00 -4.07977390e+00 -4.52245712e+00 -5.52995872e+00 -4.89689684e+00 -2.35799265e+00 -2.76264095e+00 -3.34413671e+00 -3.34172368e+00 -2.44740796e+00 -3.51374149e+00 -2.85517168e+00 -2.68175554e+00 -5.27268076e+00 -4.75478888e+00 -3.56427002e+00 -3.42678785e+00 -2.75275397e+00 -3.74236631e+00 -2.65149069e+00 -2.53266072e+00 -3.87945104e+00 -5.54684067e+00 -3.01890945e+00 -3.29491496e+00 -3.28950310e+00 -4.75084400e+00 -4.58205986e+00 -3.11365986e+00 -3.87621045e+00 -3.43030047e+00 -4.29710579e+00 -2.95109963e+00 -3.28175879e+00 -3.83813357e+00 -4.17946100e+00 -4.69224024e+00 -3.12753010e+00 -4.33661985e+00 -6.77293110e+00 -4.13916063e+00 -4.62570858e+00 -2.67885566e+00 -2.87750101e+00 -3.84928536e+00 -6.02404547e+00 -3.21236205e+00 -2.89802599e+00 -2.37346125e+00 -2.57447243e+00 -4.59082699e+00 -4.19309759e+00 -3.00137687e+00 -2.30018139e+00 -5.00261688e+00 -3.76002097e+00 -5.93560314e+00 -4.65949917e+00 -4.27461481e+00 -3.56879163e+00 -6.86949587e+00 -6.58427191e+00 -4.14159012e+00 -2.71609879e+00 -3.81836414e+00 -4.94199705e+00 -3.93344116e+00 -2.47411728e+00 -3.66170311e+00 -6.02965355e+00 -3.05428839e+00 -4.12392330e+00 -2.59567690e+00 -3.44097304e+00 -2.97590756e+00 -4.15992022e+00 -2.86800337e+00 -2.43447471e+00 -2.44525862e+00 -4.36829424e+00 -4.40873146e+00 -4.99791241e+00 -6.45757151e+00 -3.80779862e+00 -2.94825697e+00 -3.42875767e+00 -3.41217256e+00 -7.13841009e+00 -6.63952971e+00 -3.17363763e+00 -3.89509368e+00 -3.26735187e+00 -3.15899777e+00 -2.78662920e+00 -3.60937095e+00 -5.97601223e+00 -3.27125454e+00 -2.25257087e+00 -3.33019781e+00 -5.53856468e+00 -3.31648207e+00 -2.74216175e+00 -4.66021872e+00 -2.82734561e+00 -3.97361588e+00 -2.15622163e+00 -3.01321888e+00 -4.02409267e+00 -3.00364828e+00 -3.88237977e+00 -5.00555706e+00 -4.89693785e+00 -3.42245460e+00 -3.64605260e+00 -2.48998952e+00 -2.96411991e+00 -5.89117432e+00 -3.68090653e+00 -3.01101208e+00 -3.19743466e+00 -2.69284439e+00 -3.59029078e+00 -3.31764722e+00 -3.28226781e+00 -6.90053844e+00 -2.90879273e+00 -2.54452729e+00 -3.28089070e+00 -2.77896023e+00 -5.18466568e+00 -5.33057261e+00 -2.84020710e+00 -3.02004361e+00 -4.64798498e+00 -4.98783493e+00 -2.31912398e+00 -5.90033054e+00 -2.49392867e+00 -4.08653927e+00 -2.32875848e+00 -2.80375934e+00 -1.21706276e+01 -4.14378977e+00 -3.89116836e+00 -4.04108953e+00 -3.20586014e+00 -3.60912585e+00 -4.16328192e+00 -3.33124328e+00 -3.33969831e+00 -4.35370445e+00 -2.72879148e+00 -3.26619577e+00 -5.07064056e+00 -5.36359024e+00 -4.40088940e+00 -2.87104011e+00 -2.38169837e+00 -2.54709697e+00 -5.01258278e+00 -4.04084063e+00 -2.85901833e+00 -2.94988632e+00 -4.92146683e+00 -2.29226494e+00 -3.16893649e+00 -3.94825077e+00 -4.18531132e+00 -2.89578652e+00 -4.08715010e+00 -3.03267169e+00 -2.50921202e+00 -2.37176514e+00 -4.12692165e+00 -3.71523976e+00 -3.18983126e+00 -3.56454921e+00 -4.66756344e+00 -4.91383410e+00 -4.50534630e+00 -4.67969942e+00 -3.86237979e+00 -4.19452810e+00 -6.36920357e+00 -6.03746796e+00 -6.89196444e+00 -3.89873433e+00 -3.36391497e+00 -3.06848741e+00 -2.90191007e+00 -5.26307821e+00 -3.17674136e+00 -3.30193329e+00 -3.04093790e+00 -4.85654879e+00 -5.85147810e+00 -3.17442775e+00 -3.99486971e+00 -4.22422075e+00 -3.64152503e+00 -2.83525372e+00 -2.66126895e+00 -2.47027302e+00 -4.20164490e+00 -4.78949976e+00 -3.91073513e+00 -2.16226912e+00 -2.77090049e+00 -2.73126745e+00 -3.10939479e+00 -3.95907378e+00 -5.14462137e+00 -3.46854258e+00 -4.02667046e+00 -5.05654049e+00 -5.43295717e+00 -2.96876550e+00 -5.17575169e+00 -5.08192587e+00 -3.50620985e+00 -3.25818658e+00 -3.03908753e+00 -3.02431250e+00 -4.59733486e+00 -4.89735508e+00 -4.06711149e+00 -2.55965996e+00 -3.31801105e+00 -5.34747267e+00 -4.02905369e+00 -3.57398844e+00 -4.41514254e+00 -4.30948830e+00 -5.06915474e+00 -3.68693590e+00 -4.29472208e+00 -2.55568147e+00 -2.92749166e+00 -7.14311028e+00 -2.56095934e+00 -2.11418605e+00 -2.61377215e+00 -4.55942202e+00 -4.85536623e+00 -2.49345088e+00 -2.06884646e+00 -5.14567661e+00 -4.73141861e+00 -3.42654777e+00 -4.83224249e+00 -3.60626984e+00 -3.46618152e+00 -5.30154514e+00 -3.41459298e+00 -3.17018461e+00 -3.63543630e+00 -3.31019807e+00 -3.77849436e+00 -3.67329741e+00 -5.56820774e+00 -5.74411106e+00 -5.10880089e+00 -2.89805675e+00 -2.89447141e+00 -3.68361163e+00 -5.81791162e+00 -4.91312885e+00 -3.28879857e+00 -3.20610619e+00 -5.47043324e+00 -3.12729335e+00 -3.50588965e+00 -4.60372305e+00 -5.95686817e+00 -4.21745539e+00 -2.86430740e+00 -2.72069383e+00 -2.15873003e+00 -3.37421679e+00 -6.60604429e+00 -2.33536935e+00 -2.97609019e+00 -2.41380239e+00 -3.97086310e+00 -4.76364946e+00 -2.40611935e+00 -4.74713087e+00 -4.06397629e+00 -3.37507915e+00 -4.48546600e+00 -4.58041859e+00 -4.16833401e+00 -3.37624979e+00 -3.87552643e+00 -3.39533854e+00 -4.60972214e+00 -3.32172823e+00 -3.59229302e+00 -7.65553808e+00 -5.14904642e+00 -4.98693800e+00 -3.72402978e+00 -3.93731165e+00 -2.69998384e+00 -3.03001380e+00 -5.33019590e+00 -3.53781247e+00 -3.38687038e+00 -3.36255765e+00 -4.12168694e+00 -4.66715813e+00 -2.79579163e+00 -2.62530804e+00 -2.77462959e+00 -3.74803615e+00 -4.19675827e+00 -5.15343618e+00 -2.85711598e+00 -2.08977675e+00 -2.19372320e+00 -2.97601271e+00 -3.66284108e+00 -5.86511946e+00 -2.41383338e+00 -4.72334719e+00 -2.51398206e+00 -3.82924271e+00 -4.74603653e+00 -4.17070246e+00 -3.75025702e+00 -3.85490274e+00 -3.78264213e+00 -3.65801215e+00 -4.22977781e+00 -4.94024277e+00 -4.61614847e+00 -4.22413492e+00 -4.78773212e+00 -3.20244026e+00 -4.50303459e+00 -3.62987709e+00 -5.27939892e+00 -4.06569672e+00 -3.27180386e+00 -3.59576464e+00 -4.34665442e+00 -5.21845818e+00 -3.95721078e+00 -2.94765377e+00 -3.19201827e+00 -3.87497234e+00 -4.24966621e+00 -6.63347912e+00 -2.74519396e+00 -3.44322324e+00 -2.89731503e+00 -2.85140014e+00 -3.17151308e+00 -2.82168508e+00 -3.06889987e+00 -2.23556519e+00 -2.37198639e+00 -3.05367112e+00 -4.49011421e+00 -3.47046781e+00 -4.66229296e+00 -2.46274567e+00 -3.24324083e+00 -2.61472797e+00 -3.34075642e+00 -2.80313206e+00 -4.75551939e+00 -4.09823084e+00 -4.23104382e+00 -4.53810978e+00 -5.14666605e+00 -3.56252789e+00 -5.26025248e+00 -3.68903923e+00 -3.95429230e+00 -4.57872152e+00 -5.03036451e+00 -4.04695415e+00 -3.40040708e+00 -4.72087860e+00 -5.27577829e+00 -2.80495048e+00 -3.19165444e+00 -3.92978930e+00 -4.13214207e+00 -2.74130011e+00 -2.95165658e+00 -4.04206133e+00 -5.01951361e+00 -5.60854340e+00 -3.24968052e+00 -3.40799427e+00 -4.71562433e+00 -8.55440331e+00 -3.36596799e+00 -3.91425705e+00 -3.14699578e+00 -2.76577210e+00 -2.22925329e+00 -2.39167070e+00 -2.50494313e+00 -4.41943789e+00 -4.52699614e+00 -3.06485462e+00 -3.45903873e+00 -5.80775595e+00 -2.58343744e+00 -2.32588696e+00 -2.41054368e+00 -2.51395607e+00 -3.93574333e+00 -3.11192274e+00 -3.90597034e+00 -4.12290239e+00 -4.68865871e+00 -4.76303720e+00 -4.20421124e+00 -4.42455769e+00 -4.19603777e+00 -3.62043333e+00 -3.62972260e+00 -3.54172468e+00 -4.75923491e+00 -3.91902924e+00 -3.69448447e+00 -5.06568098e+00 -4.54830980e+00 -3.09587097e+00 -4.79042816e+00 -2.93991923e+00 -2.82917047e+00 -4.67487812e+00 -6.06222534e+00 -4.67214680e+00 -3.37283349e+00 -3.03051925e+00 -2.89668918e+00 -4.09811878e+00 -2.65629816e+00 -3.11183858e+00 -1.07735796e+01 -2.56800914e+00 -5.10371208e+00 -2.92999363e+00 -3.16736627e+00 -2.89718270e+00 -2.86842275e+00 -4.44372702e+00 -3.14106584e+00 -3.17544413e+00 -2.22513223e+00 -3.65018082e+00 -2.48654747e+00 -2.69571710e+00 -2.43944812e+00 -4.31868124e+00 -3.61865044e+00 -2.86272311e+00 -4.67201710e+00 -3.87556648e+00 -4.15790749e+00 -3.34226942e+00 -4.03992796e+00 -4.50268221e+00 -4.24499130e+00 -3.95653081e+00 -4.46271658e+00 -4.79298925e+00 -3.79756093e+00 -4.68040323e+00 -3.71644068e+00 -3.89125466e+00 -4.49845076e+00 -5.66031265e+00 -2.82533073e+00 -4.15677452e+00 -4.28980827e+00 -3.31167340e+00 -4.66758776e+00 -5.62818623e+00 -3.18601656e+00 -4.25127554e+00 -2.67940044e+00 -3.43809366e+00 -3.11251974e+00 -3.11476445e+00 -2.49072194e+00 -4.54521132e+00 -2.89419937e+00 -4.45247555e+00 -4.72401953e+00 -4.57072401e+00 -4.72918272e+00 -3.15455627e+00 -2.34051728e+00 -2.25433636e+00 -2.43477964e+00 -4.69390631e+00 -3.90891623e+00 -2.65843964e+00 -2.50985551e+00 -3.94591379e+00 -3.72058725e+00 -2.67845130e+00 -3.35663748e+00 -5.17752838e+00 -4.38582611e+00 -3.74435592e+00 -3.74164343e+00 -4.00972748e+00 -4.01918030e+00 -4.85275364e+00 -5.42167044e+00 -5.10101891e+00 -4.39586973e+00 -4.77355194e+00 -3.32523346e+00 -4.24280310e+00 -3.87585330e+00 -3.90845275e+00 -3.35754895e+00 -3.86652040e+00 -3.68057561e+00 -3.81508279e+00 -5.73525572e+00 -4.87534666e+00 -2.95823526e+00 -3.42073464e+00 -3.01351571e+00 -4.34724760e+00 -1.11574411e+01 -3.40185761e+00 -2.78533959e+00 -2.35445714e+00 -2.92187738e+00 -2.53262043e+00 -3.11507273e+00 -4.94621086e+00 -7.59578753e+00 -5.60416603e+00 -5.50838518e+00 -2.63191342e+00 -2.70884061e+00 -3.03507686e+00 -2.09839225e+00 -2.45633411e+00 -3.50534368e+00 -4.27549934e+00 -3.02699184e+00 -2.38598585e+00 -2.32405710e+00 -3.51064014e+00 -2.41315770e+00 -2.85984540e+00 -3.38864398e+00 -3.21132588e+00 -3.88101888e+00 -3.46447897e+00 -3.11278677e+00 -3.73564219e+00 -3.97240281e+00 -3.79842854e+00 -4.12174988e+00 -4.00432587e+00 -3.88759518e+00 -3.36343646e+00 -5.04019403e+00 -4.21235704e+00 -3.77637029e+00 -3.53596187e+00 -3.49900556e+00 -3.95588732e+00 -3.43736672e+00 -4.17137671e+00 -2.91525578e+00 -3.81124282e+00 -4.13831568e+00 -5.01226282e+00 -3.77694321e+00 -5.65850830e+00 -3.44077134e+00 -4.31820488e+00 -2.82987213e+00 -3.46859121e+00 -3.46064115e+00 -3.48423219e+00 -4.80549717e+00 -4.25844288e+00 -5.94721317e+00 -3.74912500e+00 -3.05651069e+00 -3.01255655e+00 -2.75833941e+00 -3.02346706e+00 -4.82997608e+00 -3.71879911e+00 -3.97669053e+00 -5.71140814e+00 -2.82275820e+00 -1.99861002e+00 -2.56286979e+00 -2.25375009e+00 -3.17497683e+00 -5.66341305e+00 -3.26365948e+00 -2.24303794e+00 -4.02131033e+00 -2.56133628e+00 -2.22898316e+00 -2.42412376e+00 -2.01818061e+00 -3.51697755e+00 -2.55699587e+00 -3.80287075e+00 -3.05905223e+00 -3.07479119e+00 -3.28964329e+00 -3.49050546e+00 -3.92563939e+00 -4.72529793e+00 -3.41237187e+00 -4.08626890e+00 -4.28059196e+00 -4.02464199e+00 -3.60743189e+00 -3.81088042e+00 -4.44659424e+00 -4.29887438e+00 -4.50262547e+00 -4.09600735e+00 -3.87419415e+00 -4.48527861e+00 -4.22499657e+00 -4.62774229e+00 -5.74935198e+00 -3.46302962e+00 -3.87210488e+00 -3.97744322e+00 -4.37971640e+00 -4.52479839e+00 -4.17201710e+00 -2.88454437e+00 -2.88832283e+00 -4.03739166e+00 -8.14975834e+00 -2.91625452e+00 -3.85229921e+00 -3.33667254e+00 -2.75431752e+00 -2.23415661e+00 -2.55368376e+00 -4.10402393e+00 -2.90307522e+00 -4.32176542e+00 -3.52943659e+00 -4.55852032e+00 -9.13456345e+00 -2.13726401e+00 -2.35635996e+00 -3.62775517e+00 -2.65447092e+00 -4.82225800e+00 -3.67352533e+00 -2.69521332e+00 -2.13529634e+00 -5.34526920e+00 -3.96402836e+00 -5.91143227e+00 -2.60286617e+00 -2.15913153e+00 -2.64173436e+00 -4.83948851e+00 -1.92403448e+00 -3.48086739e+00 -2.10792494e+00 -2.41940641e+00 -2.24675655e+00 -2.41762185e+00 -3.50979114e+00 -2.97351742e+00 -2.76777887e+00 -2.77995253e+00 -3.51461220e+00 -4.58566809e+00 -4.15910673e+00 -4.80727863e+00 -3.73244429e+00 -5.91076231e+00 -3.99540162e+00 -3.90504813e+00 -5.13788271e+00 -4.29256058e+00 -4.85581064e+00 -4.69850779e+00 -3.82217836e+00 -4.23342800e+00 -4.18342257e+00 -3.37191987e+00 -3.88228440e+00 -3.52340817e+00 -3.67419052e+00 -3.87310219e+00 -3.54087496e+00 -3.77860880e+00 -4.86024046e+00 -4.03480244e+00 -4.06992912e+00 -4.10573339e+00 -6.40434408e+00 -4.31648636e+00 -3.69813728e+00 -3.12264276e+00 -4.01603985e+00 -5.90508175e+00 -2.74393916e+00 -2.86409831e+00 -3.64986920e+00 -6.75622129e+00 -3.38296628e+00 -2.14629388e+00 -2.44215512e+00 -2.31129599e+00 -4.67658329e+00 -2.58286238e+00 -7.59682560e+00 -2.04032326e+00 -1.95633721e+00 -2.17273211e+00 -2.90477419e+00 -5.68960142e+00 -2.78049374e+00 -2.52135897e+00 -2.39779782e+00 -5.47100258e+00 -4.24871254e+00 -2.01390600e+00 -3.63858438e+00 -2.86333632e+00 -2.31159353e+00 -2.02697659e+00 -2.05419564e+00 -2.39995646e+00 -2.95623040e+00 -2.68858671e+00 -2.70410061e+00 -2.58200216e+00 -3.07633018e+00 -2.37272906e+00 -2.43477345e+00 -3.48296911e-01 -2.72509217e-01 -6.69592142e-01 -1.67691886e+00 -3.70282507e+00 -3.91095853e+00 -2.78374434e+00 -5.05386400e+00 -4.49654675e+00 -3.60350418e+00 -4.68328857e+00 -3.72799277e+00 -4.14123392e+00 -4.13472939e+00 -4.75659037e+00 -4.34777880e+00 -3.78988981e+00 -3.77535367e+00 -4.15383434e+00 -3.61698079e+00 -4.01169920e+00 -3.94681072e+00 -5.00543308e+00 -2.73813057e+00 -3.96108413e+00 -3.51869607e+00 -3.80802250e+00 -5.54782820e+00 -3.95864439e+00 -4.35662603e+00 -4.45205307e+00 -3.63610530e+00 -3.31974339e+00 -5.34251547e+00 -2.95772958e+00 -2.82314396e+00 -3.10407186e+00 -2.79219341e+00 -4.72409773e+00 -4.04234838e+00 -2.74997473e+00 -5.59477758e+00 -5.40133762e+00 -4.94981575e+00 -3.30008340e+00 -2.85072684e+00 -2.64177322e+00 -2.16122770e+00 -2.09269285e+00 -4.47230053e+00 -2.09909368e+00 -1.77853191e+00 -2.54569888e+00 -2.43855286e+00 -4.78416395e+00 -2.59039879e+00 -2.88130045e+00 -3.36507726e+00 -2.00881934e+00 -4.84266472e+00 -3.78373241e+00 -2.04700756e+00 -5.39097643e+00 -2.11358428e+00 -5.32112217e+00 -4.51795673e+00 -2.22891426e+00 -2.18800521e+00 -2.20939541e+00 -2.08010197e+00 -2.03343892e+00 -3.63882256e+00 -2.85607767e+00 -3.27568078e+00 -8.87231249e-03 -1.49461222e+00 -7.78223574e-01 -1.79341972e+00 -4.19474542e-01 -3.65750819e-01 7.94634502e-03 -9.22810495e-01 -1.54900229e+00 -1.86499977e+00 -1.52475178e+00 -1.61329079e+00 -4.69390345e+00 -3.80808330e+00 -4.77433920e+00 -7.13984776e+00 -5.97432327e+00 -3.21263385e+00 -4.76353121e+00 -3.04641533e+00 -3.91629410e+00 -3.83925796e+00 -3.74491286e+00 -3.96004534e+00 -3.49071550e+00 -3.54449487e+00 -3.69219542e+00 -3.82541275e+00 -3.76073337e+00 -4.51194191e+00 -4.08715439e+00 -3.97041750e+00 -3.61231732e+00 -3.38008118e+00 -4.91474438e+00 -3.88437676e+00 -4.56304693e+00 -3.92204428e+00 -3.16954470e+00 -4.80206060e+00 -3.38502336e+00 -3.55630803e+00 -2.80887699e+00 -3.11048603e+00 -3.17106867e+00 -3.96303082e+00 -3.01606464e+00 -4.38990164e+00 -3.48235226e+00 -3.76644921e+00 -2.34825921e+00 -2.77313304e+00 -3.12717605e+00 -4.26496649e+00 -2.48363900e+00 -4.90520477e+00 -3.14130759e+00 -2.88565540e+00 -2.76184797e+00 -1.91457391e+00 -2.62001657e+00 -5.39306831e+00 -3.11270118e+00 -2.13487244e+00 -5.70038176e+00 -2.53439116e+00 -6.42429304e+00 -2.20142365e+00 -1.89780927e+00 -2.07974029e+00 -1.99051952e+00 -1.90573347e+00 -1.75041354e+00 -4.26875830e+00 -2.00385666e+00 -2.59312057e+00 -2.36619520e+00 -2.71378469e+00 -2.44769788e+00 -2.47472286e+00 -2.90947390e+00 -1.83192396e+00 -2.94899869e+00 -2.81283045e+00 -3.05263257e+00 -2.77156264e-01 -1.25762904e+00 -1.57754445e+00 -6.97934985e-01 -1.23604941e+00 -3.29485965e+00 -2.40427303e+00 -8.76082897e-01 -1.68746340e+00 -2.22134399e+00 -8.74837756e-01 -1.61465716e+00 -1.09020650e+00 -2.02130079e+00 -2.89930844e+00 -5.47398090e+00 -5.60785913e+00 -5.87203360e+00 -5.23942375e+00 -3.90618157e+00 -4.13282871e+00 -4.07975769e+00 -4.34932804e+00 -3.82910037e+00 -3.72604036e+00 -4.05740547e+00 -4.09854984e+00 -3.50965190e+00 -3.52255821e+00 -3.53613424e+00 -3.96337914e+00 -4.15248156e+00 -3.46547318e+00 -3.86680460e+00 -4.17680120e+00 -3.91741848e+00 -4.00132036e+00 -5.01310158e+00 -4.51710463e+00 -3.88110113e+00 -4.00286388e+00 -3.56392384e+00 -3.60157704e+00 -2.95640659e+00 -3.54341936e+00 -3.83909202e+00 -3.46050167e+00 -2.59908414e+00 -3.77855921e+00 -6.28181219e+00 -4.51856565e+00 -4.02452517e+00 -2.07579613e+00 -3.41743612e+00 -4.33111954e+00 -3.29131293e+00 -2.37649369e+00 -2.76751208e+00 -2.26417542e+00 -2.99879265e+00 -6.55905676e+00 -4.02413702e+00 -3.48898244e+00 -4.03428650e+00 -1.98824704e+00 -3.59989476e+00 -2.14976335e+00 -2.72719193e+00 -3.67588758e+00 -5.10367012e+00 -2.27484870e+00 -2.30236363e+00 -2.67982864e+00 -3.09123278e+00 -3.12817550e+00 -3.01285863e+00 -2.57946610e+00 -4.33147478e+00 -3.04335380e+00 -3.02310371e+00 -1.69869196e+00 -4.05097389e+00 -3.94561410e+00 -4.54573870e+00 -4.09097528e+00 -3.62126493e+00 -3.25007915e+00 -2.81296945e+00 -1.99973416e+00 -1.98235607e+00 -3.22999859e+00 -3.42337132e+00 -8.67006838e-01 -1.26554835e+00 -1.28112912e+00 -1.45945013e+00 -1.89535809e+00 -6.21777117e-01 -3.67955637e+00 -2.99270606e+00 -2.33120155e+00 -1.92635262e+00 -2.08108568e+00 -2.29522943e+00 -3.70424795e+00 -1.95058525e+00 -3.12814593e+00 -1.41419804e+00 -2.74613070e+00 -1.16827309e+00 -4.59776402e+00 -4.67104149e+00 -5.84964561e+00 -6.07402706e+00 -4.27922010e+00 -4.07341576e+00 -4.46450090e+00 -4.60605669e+00 -4.30103397e+00 -4.55193949e+00 -4.47599649e+00 -4.81422520e+00 -3.07814598e+00 -4.32650471e+00 -4.66947985e+00 -3.61207414e+00 -4.72830343e+00 -4.13036728e+00 -4.50654650e+00 -3.57486415e+00 -4.12961340e+00 -3.87550902e+00 -4.74130487e+00 -4.14787197e+00 -3.06928277e+00 -4.41785717e+00 -4.53000116e+00 -4.19806290e+00 -4.97733068e+00 -3.50440383e+00 -3.36861920e+00 -5.52787590e+00 -3.71671844e+00 -5.41330862e+00 -4.60598230e+00 -4.31439400e+00 -4.07519579e+00 -3.59777689e+00 -2.71646023e+00 -2.31374097e+00 -2.98358321e+00 -4.31857252e+00 -3.33275318e+00 -2.32868767e+00 -3.16003203e+00 -4.77246714e+00 -5.93694258e+00 -3.48088145e+00 -2.76947331e+00 -2.15671682e+00 -2.11213875e+00 -3.72590256e+00 -2.24734044e+00 -1.96447897e+00 -3.20743585e+00 -2.08928990e+00 -3.29611778e+00 -7.79326105e+00 -3.02577925e+00 -2.48360944e+00 -3.25897455e+00 -3.05385542e+00 -2.82311177e+00 -3.13895798e+00 -2.53057194e+00 -1.98574972e+00 -3.01384902e+00 -3.56220317e+00 -2.10930514e+00 -2.24505615e+00 -2.03514934e+00 -2.32820463e+00 -2.07186294e+00 -2.06484079e+00 -1.92204487e+00 -2.79827166e+00 -3.10394812e+00 -2.13554215e+00 -2.37994218e+00 -2.84895325e+00 -2.94277692e+00 -2.11207652e+00 -1.15769482e+00 -1.38581455e+00 -2.09534264e+00 -2.21386886e+00 -2.17076087e+00 -4.09936428e+00 -8.70732009e-01 -6.61922991e-01 -5.93281090e-01 -9.71116781e-01 -1.03749788e+00 -1.31861877e+00 -1.17501175e+00 -3.33762145e+00 -2.30152059e+00 -1.15765214e+00 -1.30033875e+00 -2.14314938e+00 -5.75635862e+00 -2.99287009e+00 -6.40190220e+00 -6.67674112e+00 -4.00817204e+00 -4.30006075e+00 -5.14856768e+00 -3.63078046e+00 -4.42109489e+00 -3.83918691