<?xml version="1.0"?>
<VTKFile type="UnstructuredGrid"  byte_order="LittleEndian">
<UnstructuredGrid>
<Piece NumberOfPoints="2237" NumberOfCells=" 15364">
<Points>
<DataArray type="Float32" NumberOfComponents="3" format="ascii">
2.000000 0.000000 0.000000 0.000000 2.000000 0.000000 -2.000000 0.000000 0.000000 0.000000 -2.000000 0.000000 0.000000 0.000000 2.000000 0.000000 -0.000000 -2.000000 -0.000000 -0.500000 -0.200000 -0.200000 -0.500000 -0.000000 -0.000000 -0.500000 0.200000 0.200000 -0.500000 -0.000000 0.000000 0.500000 -0.200000 -0.200000 0.500000 0.000000 0.000000 0.500000 0.200000 0.200000 0.500000 0.000000 -0.000000 -0.500000 -0.100000 -0.100000 -0.500000 -0.000000 -0.000000 -0.500000 0.100000 0.100000 -0.500000 -0.000000 0.000000 0.500000 -0.100000 -0.100000 0.500000 0.000000 0.000000 0.500000 0.100000 0.100000 0.500000 0.000000 1.847759 0.765367 0.000000 1.414214 1.414214 0.000000 0.765367 1.847759 0.000000 -0.765367 1.847759 0.000000 -1.414214 1.414214 0.000000 -1.847759 0.765367 0.000000 -1.847759 -0.765367 0.000000 -1.414214 -1.414214 0.000000 -0.765367 -1.847759 0.000000 0.765367 -1.847759 0.000000 1.414214 -1.414214 0.000000 1.847759 -0.765367 0.000000 1.847759 0.000000 0.765367 1.414214 0.000000 1.414214 0.765367 0.000000 1.847759 -0.765367 0.000000 1.847759 -1.414214 0.000000 1.414214 -1.847759 0.000000 0.765367 -1.847759 -0.000000 -0.765367 -1.414214 -0.000000 -1.414214 -0.765367 -0.000000 -1.847759 0.765367 -0.000000 -1.847759 1.414214 -0.000000 -1.414214 1.847759 -0.000000 -0.765367 0.000000 0.765367 -1.847759 0.000000 1.414214 -1.414214 0.000000 1.847759 -0.765367 -0.000000 1.847759 0.765367 -0.000000 1.414214 1.414214 -0.000000 0.765367 1.847759 -0.000000 -0.765367 1.847759 -0.000000 -1.414214 1.414214 -0.000000 -1.847759 0.765367 0.000000 -1.847759 -0.765367 0.000000 -1.414214 -1.414214 0.000000 -0.765367 -1.847759 -0.044504 -0.500000 -0.194986 -0.086777 -0.500000 -0.180194 -0.124698 -0.500000 -0.156366 -0.156366 -0.500000 -0.124698 -0.180194 -0.500000 -0.086777 -0.194986 -0.500000 -0.044504 -0.194986 -0.500000 0.044504 -0.180194 -0.500000 0.086777 -0.156366 -0.500000 0.124698 -0.124698 -0.500000 0.156366 -0.086777 -0.500000 0.180194 -0.044504 -0.500000 0.194986 0.044504 -0.500000 0.194986 0.086777 -0.500000 0.180194 0.124698 -0.500000 0.156366 0.156366 -0.500000 0.124698 0.180194 -0.500000 0.086777 0.194986 -0.500000 0.044504 0.194986 -0.500000 -0.044504 0.180194 -0.500000 -0.086777 0.156366 -0.500000 -0.124698 0.124698 -0.500000 -0.156366 0.086777 -0.500000 -0.180194 0.044504 -0.500000 -0.194986 -0.044504 0.500000 -0.194986 -0.086777 0.500000 -0.180194 -0.124698 0.500000 -0.156366 -0.156366 0.500000 -0.124698 -0.180194 0.500000 -0.086777 -0.194986 0.500000 -0.044504 -0.194986 0.500000 0.044504 -0.180194 0.500000 0.086777 -0.156366 0.500000 0.124698 -0.124698 0.500000 0.156366 -0.086777 0.500000 0.180194 -0.044504 0.500000 0.194986 0.044504 0.500000 0.194986 0.086777 0.500000 0.180194 0.124698 0.500000 0.156366 0.156366 0.500000 0.124698 0.180194 0.500000 0.086777 0.194986 0.500000 0.044504 0.194986 0.500000 -0.044504 0.180194 0.500000 -0.086777 0.156366 0.500000 -0.124698 0.124698 0.500000 -0.156366 0.086777 0.500000 -0.180194 0.044504 0.500000 -0.194986 -0.000000 -0.450000 -0.200000 -0.000000 -0.400000 -0.200000 -0.000000 -0.350000 -0.200000 -0.000000 -0.300000 -0.200000 -0.000000 -0.250000 -0.200000 -0.000000 -0.200000 -0.200000 -0.000000 -0.150000 -0.200000 -0.000000 -0.100000 -0.200000 -0.000000 -0.050000 -0.200000 -0.000000 -0.000000 -0.200000 0.000000 0.050000 -0.200000 0.000000 0.100000 -0.200000 0.000000 0.150000 -0.200000 0.000000 0.200000 -0.200000 0.000000 0.250000 -0.200000 0.000000 0.300000 -0.200000 0.000000 0.350000 -0.200000 0.000000 0.400000 -0.200000 0.000000 0.450000 -0.200000 -0.200000 -0.450000 -0.000000 -0.200000 -0.400000 -0.000000 -0.200000 -0.350000 -0.000000 -0.200000 -0.300000 -0.000000 -0.200000 -0.250000 -0.000000 -0.200000 -0.200000 -0.000000 -0.200000 -0.150000 -0.000000 -0.200000 -0.100000 -0.000000 -0.200000 -0.050000 -0.000000 -0.200000 -0.000000 -0.000000 -0.200000 0.050000 0.000000 -0.200000 0.100000 0.000000 -0.200000 0.150000 0.000000 -0.200000 0.200000 0.000000 -0.200000 0.250000 0.000000 -0.200000 0.300000 0.000000 -0.200000 0.350000 0.000000 -0.200000 0.400000 0.000000 -0.200000 0.450000 0.000000 -0.000000 -0.450000 0.200000 -0.000000 -0.400000 0.200000 -0.000000 -0.350000 0.200000 -0.000000 -0.300000 0.200000 -0.000000 -0.250000 0.200000 -0.000000 -0.200000 0.200000 -0.000000 -0.150000 0.200000 -0.000000 -0.100000 0.200000 -0.000000 -0.050000 0.200000 -0.000000 -0.000000 0.200000 0.000000 0.050000 0.200000 0.000000 0.100000 0.200000 0.000000 0.150000 0.200000 0.000000 0.200000 0.200000 0.000000 0.250000 0.200000 0.000000 0.300000 0.200000 0.000000 0.350000 0.200000 0.000000 0.400000 0.200000 0.000000 0.450000 0.200000 0.200000 -0.450000 -0.000000 0.200000 -0.400000 -0.000000 0.200000 -0.350000 -0.000000 0.200000 -0.300000 -0.000000 0.200000 -0.250000 -0.000000 0.200000 -0.200000 -0.000000 0.200000 -0.150000 -0.000000 0.200000 -0.100000 -0.000000 0.200000 -0.050000 -0.000000 0.200000 -0.000000 -0.000000 0.200000 0.050000 0.000000 0.200000 0.100000 0.000000 0.200000 0.150000 0.000000 0.200000 0.200000 0.000000 0.200000 0.250000 0.000000 0.200000 0.300000 0.000000 0.200000 0.350000 0.000000 0.200000 0.400000 0.000000 0.200000 0.450000 0.000000 -0.038268 -0.500000 -0.092388 -0.070711 -0.500000 -0.070711 -0.092388 -0.500000 -0.038268 -0.092388 -0.500000 0.038268 -0.070711 -0.500000 0.070711 -0.038268 -0.500000 0.092388 0.038268 -0.500000 0.092388 0.070711 -0.500000 0.070711 0.092388 -0.500000 0.038268 0.092388 -0.500000 -0.038268 0.070711 -0.500000 -0.070711 0.038268 -0.500000 -0.092388 -0.038268 0.500000 -0.092388 -0.070711 0.500000 -0.070711 -0.092388 0.500000 -0.038268 -0.092388 0.500000 0.038268 -0.070711 0.500000 0.070711 -0.038268 0.500000 0.092388 0.038268 0.500000 0.092388 0.070711 0.500000 0.070711 0.092388 0.500000 0.038268 0.092388 0.500000 -0.038268 0.070711 0.500000 -0.070711 0.038268 0.500000 -0.092388 -0.000000 -0.450000 -0.100000 -0.000000 -0.400000 -0.100000 -0.000000 -0.350000 -0.100000 -0.000000 -0.300000 -0.100000 -0.000000 -0.250000 -0.100000 -0.000000 -0.200000 -0.100000 -0.000000 -0.150000 -0.100000 -0.000000 -0.100000 -0.100000 -0.000000 -0.050000 -0.100000 -0.000000 -0.000000 -0.100000 0.000000 0.050000 -0.100000 0.000000 0.100000 -0.100000 0.000000 0.150000 -0.100000 0.000000 0.200000 -0.100000 0.000000 0.250000 -0.100000 0.000000 0.300000 -0.100000 0.000000 0.350000 -0.100000 0.000000 0.400000 -0.100000 0.000000 0.450000 -0.100000 -0.100000 -0.450000 -0.000000 -0.100000 -0.400000 -0.000000 -0.100000 -0.350000 -0.000000 -0.100000 -0.300000 -0.000000 -0.100000 -0.250000 -0.000000 -0.100000 -0.200000 -0.000000 -0.100000 -0.150000 -0.000000 -0.100000 -0.100000 -0.000000 -0.100000 -0.050000 -0.000000 -0.100000 -0.000000 -0.000000 -0.100000 0.050000 0.000000 -0.100000 0.100000 0.000000 -0.100000 0.150000 0.000000 -0.100000 0.200000 0.000000 -0.100000 0.250000 0.000000 -0.100000 0.300000 0.000000 -0.100000 0.350000 0.000000 -0.100000 0.400000 0.000000 -0.100000 0.450000 0.000000 -0.000000 -0.450000 0.100000 -0.000000 -0.400000 0.100000 -0.000000 -0.350000 0.100000 -0.000000 -0.300000 0.100000 -0.000000 -0.250000 0.100000 -0.000000 -0.200000 0.100000 -0.000000 -0.150000 0.100000 -0.000000 -0.100000 0.100000 -0.000000 -0.050000 0.100000 -0.000000 -0.000000 0.100000 0.000000 0.050000 0.100000 0.000000 0.100000 0.100000 0.000000 0.150000 0.100000 0.000000 0.200000 0.100000 0.000000 0.250000 0.100000 0.000000 0.300000 0.100000 0.000000 0.350000 0.100000 0.000000 0.400000 0.100000 0.000000 0.450000 0.100000 0.100000 -0.450000 -0.000000 0.100000 -0.400000 -0.000000 0.100000 -0.350000 -0.000000 0.100000 -0.300000 -0.000000 0.100000 -0.250000 -0.000000 0.100000 -0.200000 -0.000000 0.100000 -0.150000 -0.000000 0.100000 -0.100000 -0.000000 0.100000 -0.050000 -0.000000 0.100000 -0.000000 -0.000000 0.100000 0.050000 0.000000 0.100000 0.100000 0.000000 0.100000 0.150000 0.000000 0.100000 0.200000 0.000000 0.100000 0.250000 0.000000 0.100000 0.300000 0.000000 0.100000 0.350000 0.000000 0.100000 0.400000 0.000000 0.100000 0.450000 0.000000 -0.000000 -0.500000 -0.150000 -0.150000 -0.500000 -0.000000 -0.000000 -0.500000 0.150000 0.150000 -0.500000 -0.000000 0.000000 0.500000 -0.150000 -0.150000 0.500000 0.000000 0.000000 0.500000 0.150000 0.150000 0.500000 0.000000 1.256570 1.076982 1.123005 0.751640 1.527338 1.049893 1.036205 0.634206 1.588730 1.645900 0.973092 0.586603 0.831163 1.746787 0.507844 0.464909 0.911621 1.718373 1.875704 0.477360 0.503847 0.398909 1.933267 0.321483 0.476303 0.473973 1.883742 0.808641 1.145370 1.426264 1.607492 0.545887 1.057344 1.290024 1.370282 0.676879 1.361982 1.051894 -1.019080 1.097342 1.531046 -0.672115 1.053149 0.619093 -1.583541 1.684105 0.940826 -0.527859 0.533560 1.741782 -0.825535 0.500008 0.963369 -1.679855 1.885855 0.458063 -0.483457 0.324905 1.933365 -0.395649 0.485390 0.490293 -1.877235 0.810226 1.273064 -1.312571 1.656166 0.479709 -1.013407 1.448786 1.234581 -0.613866 -1.296095 1.008786 -1.141266 -0.783027 1.485202 -1.086758 -0.754474 1.005305 -1.555677 -1.660843 0.956856 -0.570988 -0.861527 1.729457 -0.516478 -0.804191 0.455056 -1.773753 -0.398909 1.933267 -0.321483 -1.878556 0.472101 -0.498144 -0.398856 0.320872 -1.933379 -1.618221 0.536871 -1.045529 -1.302667 1.338762 -0.714685 -1.233231 0.631721 -1.442245 -1.296297 1.138866 1.011236 -0.756075 1.546675 1.017912 -0.783081 1.084619 1.486737 -0.804191 1.773753 0.455056 -1.660804 0.570398 0.957275 -0.861492 0.516049 1.729602 -0.398856 1.933379 0.320872 -1.879767 0.492647 0.473047 -0.398909 0.321483 1.933267 -1.631040 1.022329 0.542727 -1.302630 0.714107 1.339106 -1.237428 1.436495 0.636595 -1.256570 -1.076982 -1.123005 -0.751640 -1.527338 -1.049893 -1.036205 -0.634206 -1.588730 -1.645900 -0.973092 -0.586603 -0.831163 -1.746787 -0.507844 -0.464909 -0.91
[...]
<PointData>
<DataArray type="Float32" Name="MagneticVectorPotential" NumberOfComponents="3" format="ascii">
 -6.99991576e-30
 -4.97574774e-34
 5.96927060e-29
 -5.39578200e-30
 3.66867798e-35
 5.88808205e-30
 -7.16872127e-31
 4.76488288e-34
 -5.75244219e-29
 -6.41224081e-30
 8.80282089e-35
 -1.08194118e-29
 -4.68611135e-29
 5.46331020e-34
 -2.84750228e-30
 3.98303919e-29
 -4.14070411e-34
 4.98697225e-31
 -2.49194074e-02
 1.41836310e-07
 3.78735072e-04
 -3.52803792e-04
 -5.88401861e-07
 2.42878906e-02
 2.42372379e-02
 1.58456402e-07
 1.21241006e-04
 -1.45428523e-04
 3.94876878e-07
 -2.36304104e-02
 -2.34187767e-02
 1.07367505e-07
 -5.58363914e-04
 5.62138972e-04
 6.46008687e-08
 2.37668660e-02
 2.54550241e-02
 -5.36918662e-07
 -1.03189237e-03
 1.10074691e-03
 3.20005370e-07
 -2.59556826e-02
 -1.87415387e-02
 -6.82256429e-09
 1.33003035e-04
 -8.72600576e-05
 -7.19325044e-08
 1.91429965e-02
 1.87550690e-02
 2.03697212e-07
 1.02602735e-05
 1.89328766e-05
 -5.79484762e-08
 -1.85157862e-02
 -1.75619423e-02
 1.11953092e-07
 -5.49885153e-04
 5.63821523e-04
 1.80774421e-07
 1.77576132e-02
 1.91331916e-02
 -3.83027924e-07
 -8.44519294e-04
 8.01894348e-04
 4.83959930e-08
 -1.96047220e-02
 -2.46711457e-30
 -2.42863883e-34
 3.33981982e-29
 1.48007669e-30
 -4.56020268e-34
 6.77715669e-29
 -1.13195968e-29
 6.90173385e-36
 3.79460982e-29
 -1.87367518e-30
 5.12615638e-35
 -9.46637224e-30
 -3.55333962e-30
 2.44893631e-34
 -4.84600296e-29
 -4.26632152e-30
 3.34138815e-34
 -4.49637415e-29
 -5.06401913e-30
 5.45548214e-34
 -5.60362257e-29
 9.16590084e-30
 2.98548795e-34
 -4.25113345e-29
 -1.14272119e-29
 3.35299478e-34
 -2.99348916e-29
 -1.03482811e-30
 -2.69115059e-34
 2.49122785e-29
 -6.21018104e-30
 -5.19767005e-34
 5.53062020e-29
 -1.78140602e-30
 -4.94983222e-34
 4.79274317e-29
 -1.95723804e-29
 -1.45498788e-34
 4.02260170e-29
 -3.56044592e-29
 5.64143559e-35
 3.47107164e-29
 -4.31972003e-29
 3.20311076e-34
 2.09450328e-29
 -4.65753928e-29
 6.64526609e-34
 -2.60656081e-29
 -4.09391919e-29
 7.45525058e-34
 -4.35611951e-29
 -1.86821344e-29
 6.55232811e-34
 -5.61259620e-29
 1.66418598e-29
 2.87536640e-34
 -5.50575584e-29
 3.65387098e-29
 -1.21473531e-34
 -2.81503099e-29
 4.39624836e-29
 -2.84123574e-34
 -1.81253600e-29
 4.52061529e-29
 -6.48036031e-34
 1.84293876e-29
 3.20395750e-29
 -6.13347881e-34
 3.01764725e-29
 2.09585444e-29
 -7.35522427e-34
 5.43081008e-29
 2.89566125e-29
 -3.33076072e-34
 1.97262208e-30
 8.08144760e-29
 -8.96853517e-34
 7.48897859e-30
 4.07946990e-29
 -3.64223228e-34
 -2.05978659e-29
 -2.33841704e-29
 2.50815804e-34
 9.43640785e-31
 -6.05061767e-29
 7.16899015e-34
 -4.07191394e-30
 -6.45692630e-29
 7.98256540e-34
 -1.22417689e-29
 -5.59083379e-29
 4.91540585e-34
 4.20012407e-30
 -4.75209883e-29
 3.30186146e-34
 1.34755879e-30
 -1.83899377e-29
 -1.92089567e-35
 1.45971948e-29
 2.90726107e-29
 -2.30842318e-34
 -2.28695341e-31
 6.66652164e-29
 -6.13844665e-34
 5.47705211e-30
 4.30537637e-29
 -5.08744588e-34
 9.53938379e-30
 -2.45924685e-02
 4.95168386e-08
 5.82401315e-03
 -2.24509891e-02
 -5.23569348e-08
 1.10299541e-02
 -1.95854604e-02
 1.06852891e-08
 1.58741139e-02
 -1.55699784e-02
 7.08665198e-08
 1.95815023e-02
 -1.10730752e-02
 -1.29681268e-07
 2.27296036e-02
 -5.85604273e-03
 -6.13905115e-07
 2.47185044e-02
 5.25658438e-03
 -2.25475361e-07
 2.40773372e-02
 1.02927051e-02
 -1.93329200e-07
 2.21937709e-02
 1.51112331e-02
 5.47072032e-09
 1.90869793e-02
 1.92130692e-02
 -5.39577414e-08
 1.53894071e-02
 2.14949418e-02
 -1.83104087e-09
 1.06804417e-02
 2.34233961e-02
 1.87025350e-07
 5.56579186e-03
 2.35806499e-02
 -6.79326604e-08
 -5.16305724e-03
 2.10409574e-02
 -2.43173048e-07
 -9.94362123e-03
 1.81693956e-02
 -1.33596799e-07
 -1.42618828e-02
 1.45501522e-02
 1.97900771e-08
 -1.80806890e-02
 1.00058382e-02
 -2.20680416e-08
 -2.07318645e-02
 5.09856548e-03
 3.13994832e-07
 -2.27309447e-02
 -5.42030996e-03
 4.21187025e-07
 -2.34154034e-02
 -1.04997493e-02
 2.58701817e-07
 -2.14700270e-02
 -1.52358320e-02
 7.46098081e-08
 -1.86229739e-02
 -1.91638526e-02
 4.10338750e-08
 -1.51277585e-02
 -2.18400396e-02
 1.51181041e-07
 -1.01949861e-02
 -2.43479107e-02
 1.69629175e-07
 -5.26241353e-03
 -2.29300428e-02
 6.03373849e-08
 4.70873527e-03
 -2.04890482e-02
 3.85725691e-08
 9.57232248e-03
 -1.76743027e-02
 3.22066569e-08
 1.42133180e-02
 -1.41205639e-02
 9.34089783e-08
 1.79944467e-02
 -9.62220132e-03
 -8.26801667e-08
 2.07680501e-02
 -4.62291203e-03
 -6.81994408e-08
 2.29332782e-02
 6.10232446e-03
 4.14928962e-07
 2.28618700e-02
 1.06816478e-02
 5.52604149e-07
 2.06081476e-02
 1.51780173e-02
 3.68971854e-07
 1.77210253e-02
 1.90022755e-02
 4.05811882e-08
 1.39962798e-02
 2.18072068e-02
 -3.17133043e-07
 9.41673201e-03
 2.41999011e-02
 -5.75516992e-07
 4.55284351e-03
 2.48438511e-02
 -4.96164034e-07
 -6.41563348e-03
 2.30189953e-02
 -4.69705697e-07
 -1.16479425e-02
 2.02281158e-02
 -5.91060314e-07
 -1.65547710e-02
 1.66867953e-02
 -4.26487617e-07
 -2.06731092e-02
 1.18798399e-02
 -2.13223529e-07
 -2.35994793e-02
 6.70708856e-03
 3.24059446e-09
 -2.57516727e-02
 -4.46845451e-03
 4.30023078e-07
 -2.47466005e-02
 -9.56549961e-03
 2.52165250e-07
 -2.27266699e-02
 -1.43134007e-02
 1.68026389e-07
 -1.96962189e-02
 -1.78946760e-02
 1.60348435e-07
 -1.55641651e-02
 -2.10023057e-02
 3.70397046e-08
 -1.09563926e-02
 -2.30535362e-02
 1.69531162e-07
 -5.98288653e-03
 -3.11465692e-02
 1.48245988e-07
 3.14185105e-04
 -3.50927860e-02
 1.82203848e-07
 2.80998065e-04
 -3.79180722e-02
 2.23268245e-07
 3.82958096e-04
 -3.93210612e-02
 2.62773284e-07
 3.05068126e-04
 -4.02814783e-02
 3.05968854e-07
 1.20728459e-04
 -4.04275917e-02
 2.53292598e-07
 1.33909765e-04
 -4.04860601e-02
 2.26449700e-07
 1.79433759e-04
 -4.12412658e-02
 3.64068399e-07
 1.31900364e-04
 -4.12802808e-02
 3.34570075e-07
 7.76400339e-05
 -4.17345650e-02
 4.29932015e-07
 2.12438696e-04
 -4.12636213e-02
 6.02250850e-07
 9.80731493e-05
 -4.09804918e-02
 7.16409033e-07
 4.78058064e-06
 -4.08696570e-02
 7.38775441e-07
 -1.52099616e-04
 -4.01577093e-02
 8.02930799e-07
 -2.58343673e-04
 -3.90226208e-02
 7.54536700e-07
 -5.69671509e-04
 -3.77163514e-02
 5.20603919e-07
 -6.68292341e-04
 -3.56418416e-02
 2.91127122e-07
 -7.04335107e-04
 -3.31485756e-02
 4.75045354e-08
 -7.12536916e-04
 -2.91723758e-02
 5.00919519e-08
 -6.02468848e-04
 -1.33072987e-04
 -3.62643476e-07
 3.14439200e-02
 -1.86791513e-04
 -3.53114132e-07
 3.52926515e-02
 -5.49858196e-05
 -4.43810791e-07
 3.79658341e-02
 1.54196969e-05
 -4.56752048e-07
 3.95005457e-02
 8.27076728e-05
 -4.84818315e-07
 4.05737795e-02
 1.60385287e-04
 -4.83768304e-07
 4.09672596e-02
 1.31526816e-04
 -5.61142258e-07
 4.11648937e-02
 2.87140167e-04
 -6.48136165e-07
 4.13747169e-02
 3.35423276e-04
 -6.12279734e-07
 4.22604904e-02
 4.90609498e-04
 -5.64087657e-07
 4.21360731e-02
 6.95454772e-04
 -4.61043584e-07
 4.16811258e-02
 7.00256496e-04
 -4.07600737e-07
 4.12316322e-02
 7.53847475e-04
 -3.47858531e-07
 4.05250899e-02
 7.79201800e-04
 -2.53234106e-07
 3.95329595e-02
 6.70416222e-04
 -1.37334638e-07
 3.86839435e-02
 7.11584289e-04
 -3.30040457e-08
 3.73925231e-02
 6.01000502e-04
 2.84206063e-08
 3.53902988e-02
 6.12574455e-04
 -3.69374886e-09
 3.29541825e-02
 5.83512709e-04
 1.06558986e-07
 2.93379370e-02
 3.03383451e-02
 1.15856359e-07
 1.90045481e-04
 3.45055573e-02
 -4.81999951e-09
 1.74122863e-04
 3.71200405e-02
 -1.39038434e-07
 1.95091736e-04
 3.89433540e-02
 -1.84918335e-07
 2.09979917e-04
 4.01823148e-02
 -2.92668290e-07
 2.04014868e-04
 4.05761264e-02
 -3.31175414e-07
 1.56286245e-04
 4.10755910e-02
 -2.81100199e-07
 1.14278788e-04
 4.19846363e-02
 -3.28900484e-07
 2.48553726e-04
 4.21139896e-02
 -5.70356121e-07
 2.10774597e-04
 4.25497442e-02
 -6.80374512e-07
 -1.04170376e-05
 4.27465700e-02
 -8.23936659e-07
 -5.11736616e-05
 4.26662974e-02
 -9.09386188e-07
 -3.10817006e-04
 4.24058177e-02
 -8.27094993e-07
 -4.67819278e-04
 4.20429036e-02
 -7.77601485e-07
 -4.65905148e-04
 4.12410721e-02
 -7.99323800e-07
 -5.41407207e-04
 4.02611941e-02
 -6.93136940e-07
 -9.19276674e-04
 3.84773389e-02
 -4.60839971e-07
 -9.28643916e-04
 3.56929377e-02
 -3.92133103e-07
 -8.70585674e-04
 3.15128900e-02
 -4.01750100e-07
 -9.55951982e-04
 -7.04936392e-05
 4.53801391e-07
 -3.00113838e-02
 4.96456087e-05
 4.64973994e-07
 -3.36405896e-02
 5.70091543e-05
 3.98225353e-07
 -3.65196094e-02
 1.32131419e-04
 5.06214178e-07
 -3.82496975e-02
 2.02051859e-04
 5.20020706e-07
 -3.97570468e-02
 2.37438682e-04
 6.03730143e-07
 -4.04473469e-02
 4.42666933e-04
 6.73209911e-07
 -4.07811962e-02
 5.23437397e-04
 6.52106451e-07
 -4.10947502e-02
 6.53214403e-04
 5.51061078e-07
 -4.13371585e-02
 6.72940514e-04
 5.47427533e-07
 -4.16845791e-02
 7.91328202e-04
 5.82376572e-07
 -4.13728245e-02
 8.49907054e-04
 6.33824129e-07
 -4.12851498e-02
 9.17927944e-04
 6.34944513e-07
 -4.12213281e-02
 1.12620217e-03
 5.64728339e-07
 -4.08361666e-02
 1.20439986e-03
 3.42342474e-07
 -4.07734960e-02
 1.14207959e-03
 2.18637041e-07
 -3.99013422e-02
 1.27071759e-03
 1.61670400e-07
 -3.89617495e-02
 1.15641765e-03
 2.00068833e-08
 -3.68907899e-02
 1.17785973e-03
 1.88470572e-08
 -3.24767493e-02
 -1.73492897e-02
 -8.45218722e-08
 7.30054267e-03
 -1.33076785e-02
 1.73734833e-07
 1.34185655e-02
 -7.20262015e-03
 2.10012715e-07
 1.75767541e-02
 7.12241838e-03
 -1.74958217e-07
 1.73401665e-02
 1.29244430e-02
 1.63778395e-07
 1.29427603e-02
 1.71201434e-02
 3.57460209e-07
 7.04169506e-03
 1.73256770e-02
 -1.21167730e-07
 -7.12354947e-03
 1.31911933e-02
 -6.77046117e-08
 -1.29707884e-02
 7.17519643e-03
 -2.22799827e-07
 -1.71567295e-02
 -7.07823457e-03
 -1.20112290e-07
 -1.69025287e-02
 -1.32336980e-02
 1.37317124e-09
 -1.31370891e-02
 -1.70882661e-02
 9.42573908e-10
 -7.00987782e-03
 -1.63091980e-02
 9.94998999e-08
 6.49707951e-03
 -1.23774642e-02
 9.26409243e-08
 1.24713853e-02
 -6.42723078e-03
 9.92447085e-08
 1.63605642e-02
 7.39422580e-03
 3.74841704e-07
 1.62386298e-02
 1.31380688e-02
 -5.84941304e-08
 1.20179085e-02
 1.75634790e-02
 -4.95728159e-07
 6.29605772e-03
 1.75319593e-02
 -2.47856576e-07
 -7.78490677e-03
 1.36753824e-02
 -4.64031956e-07
 -1.38529055e-02
 7.76315480e-03
 -3.66848326e-07
 -1.79585889e-02
 -6.32273685e-03
 5.04629213e-07
 -1.79897491e-02
 -1.20937526e-02
 2.53155406e-07
 -1.34301260e-02
 -1.61996055e-02
 9.51942027e-08
 -7.50826439e-03
 -2.40974315e-02
 7.62921815e-08
 1.34524147e-04
 -2.71381699e-02
 8.25405522e-08
 1.09143148e-04
 -2.91929599e-02
 7.05155045e-08
 1.56059526e-04
 -3.04326713e-02
 1.32708848e-07
 1.06732616e-04
 -3.09254378e-02
 1.00689959e-07
 1.39647469e-04
 -3.14274468e-02
 1.50431305e-07
 1.11179674e-04
 -3.17073427e-02
 2.47045392e-07
 1.22635567e-04
 -3.19061205e-02
 2.20998487e-07
 2.01256960e-04
 -3.22392285e-02
 4.86716196e-08
 1.80601666e-04
 -3.24240290e-02
 -3.41945423e-08
 1.43492405e-04
 -3.23663391e-02
 -1.01177193e-07
 1.56918559e-05
 -3.21159922e-02
 -1.71705238e-07
 -1.10159526e-04
 -3.14685926e-02
 -1.93478115e-07
 -2.83518166e-04
 -3.08243316e-02
 -2.09908052e-07
 -3.87179869e-04
 -2.99589541e-02
 -1.71696840e-07
 -5.32364473e-04
 -2.89001539e-02
 -7.38798889e-08
 -6.26736379e-04
 -2.75671557e-02
 7.34371000e-08
 -6.90487796e-04
 -2.57137064e-02
 2.21437688e-07
 -6.72750815e-04
 -2.27022525e-02
 2.63144159e-07
 -6.07109047e-04
 -4.91765386e-05
 1.11930936e-08
 2.42119208e-02
 -8.36165873e-06
 6.35016946e-08
 2.73347888e-02
 1.51073749e-04
 7.15975261e-08
 2.94479337e-02
 1.80605959e-04
 2.22394902e-08
 3.07127312e-02
 2.54782382e-04
 -7.70966508e-08
 3.13213430e-02
 2.66868097e-04
 -1.03895488e-07
 3.18710394e-02
 2.86590104e-04
 -6.32978967e-08
 3.21274064e-02
 3.60271282e-04
 6.55470433e-09
 3.25045697e-02
 4.28759289e-04
 6.60471073e-08
 3.27660516e-02
 5.93816396e-04
 1.40744390e-07
 3.28153260e-02
 6.71198475e-04
 3.08127568e-08
 3.26460600e-02
 7.07341474e-04
 3.35473409e-08
 3.25245187e-02
 7.65726436e-04
 3.22042055e-08
 3.17976363e-02
 8.25401337e-04
 2.70211720e-09
 3.10893245e-02
 8.41184403e-04
 -7.46230171e-08
 3.00943870e-02
 8.35805782e-04
 -2.05193885e-07
 2.89039314e-02
 7.52369640e-04
 -3.05832828e-07
 2.74834763e-02
 6.58898382e-04
 -2.48883765e-07
 2.55756211e-02
 5.81375614e-04
 -1.21368345e-07
 2.26695240e-02
 2.38176100e-02
 -8.14860783e-08
 6.88944201e-05
 2.69854460e-02
 -1.25092654e-07
 1.51367160e-04
 2.90712453e-02
 -1.41248293e-07
 1.09871740e-04
 3.03641241e-02
 -1.22755438e-07
 1.89868122e-04
 3.10952663e-02
 -1.23626592e-07
 1.79693787e-04
 3.15560661e-02
 -9.33612867e-08
 1.54795765e-04
 3.20054889e-02
 -1.04494312e-07
 1.29030595e-04
 3.26837413e-02
 -7.62268186e-08
 1.04517159e-04
 3.30479369e-02
 -3.34453389e-08
 7.82560601e-05
 3.34415548e-02
 8.33995131e-08
 -5.30712350e-05
 3.35322991e-02
 8.46325037e-08
 -1.38596370e-04
 3.35326605e-02
 1.46484595e-07
 -2.50159821e-04
 3.33885290e-02
 2.01221823e-07
 -3.90608417e-04
 3.31630744e-02
 2.34923277e-07
 -5.83571906e-04
 3.27260010e-02
 1.94223006e-07
 -7.46404927e-04
 3.16854604e-02
 5.33192051e-08
 -8.19943962e-04
 3.01411133e-02
 -1.19123520e-07
 -9.57004260e-04
 2.78901532e-02
 -3.05541903e-07
 -9.42186161e-04
 2.45554689e-02
 -4.64359999e-07
 -8.97958525e-04
 1.10343157e-04
 -3.71332121e-08
 -2.34198812e-02
 1.66491271e-04
 -6.03626704e-10
 -2.65128333e-02
 1.66449827e-04
 7.89652788e-08
 -2.85465904e-02
 1.92638719e-04
 1.34846246e-07
 -2.99981181e-02
 2.22925213e-04
 1.51505304e-07
 -3.06910407e-02
 2.16296758e-04
 7.99578359e-08
 -3.12135518e-02
 3.09540163e-04
 -6.42460094e-08
 -3.15755680e-02
 4.45667072e-04
 -7.25401392e-08
 -3.22058499e-02
 5.56134852e-04
 -5.02559985e-08
 -3.23808640e-02
 5.92950732e-04
 -7.20537159e-08
 -3.26053165e-02
 7.63051910e-04
 -1.27825842e-07
 -3.26133072e-02
 8.84457666e-04
 -3.11409103e-08
 -3.25623639e-02
 9.56981559e-04
 -4.88285217e-08
 -3.26022319e-02
 1.01445569e-03
 -3.08635002e-08
 -3.24008837e-02
 1.09453208e-03
 7.24823011e-08
 -3.21436636e-02
 1.05858711e-03
 2.49459475e-07
 -3.14740501e-02
 9.61239275e-04
 2.87450774e-07
 -3.02830674e-02
 8.84485780e-04
 2.46143799e-07
 -2.82788370e-02
 8.49002856e-04
 2.31440652e-07
 -2.48304568e-02
 -2.55025160e-02
 6.82915342e-08
 2.70635035e-04
 -2.35646832e-04
 -4.20308282e-07
 2.55596004e-02
 2.53540091e-02
 3.37863611e-07
 1.10465429e-04
 -8.35000101e-05
 2.90306502e-07
 -2.47021671e-02
 -2.40040869e-02
 6.47689546e-08
 -5.75280166e-04
 6.19112048e-04
 6.94078324e-08
 2.45591383e-02
 2.58668754e-02
 -6.46694275e-07
 -9.19747923e-04
 9.86607396e-04
 4.11673824e-07
 -2.63996199e-02
 -3.02685078e-29
 1.83162419e-34
 3.20545581e-29
 -2.76006706e-29
 2.57399261e-34
 1.31544024e-29
 -4.48669334e-29
 2.63751453e-34
 3.06768652e-29
 -2.00608113e-29
 -5.07609340e-35
 4.36850023e-29
 -1.72491086e-29
 1.16777110e-34
 1.78013915e-29
 -3.63835882e-29
 3.53085557e-34
 1.66518822e-29
 -5.93664257e-30
 -3.05952963e-34
 4.08189085e-29
 -1.63786905e-29
 1.58135823e-34
 9.35803567e-30
 -3.40685512e-29
 3.35758242e-34
 6.28715241e-30
 -2.31727440e-29
 2.23004181e-34
 9.91702405e-30
 -2.97705526e-29
 4.10647099e-35
 3.64449441e-29
 -2.63636337e-29
 4.50822086e-35
 4.58364947e-29
 3.02693625e-29
 -6.56453305e-34
 3.74587988e-29
 2.07948810e-29
 -4.39896710e-34
 3.75551494e-29
 4.36248320e-29
 -8.46222496e-34
 4.04275957e-29
 5.57431797e-30
 -3.18709832e-34
 3.41159892e-29
 1.91670670e-29
 -2.43447107e-34
 9.66372890e-30
 2.18490327e-29
 -3.05597445e-34
 8.02981056e-30
 1.96600076e-30
 -2.65682800e-34
 2.79093279e-29
 1.63167704e-29
 -2.18259110e-34
 5.61717329e-30
 3.15149847e-29
 -4.21648308e-34
 9.34051874e-30
 3.28246442e-29
 -5.91013534e-34
 3.11909320e-29
 2.97630746e-29
 -7.03823569e-34
 4.15242082e-29
 4.90669285e-30
 -1.77819062e-34
 1.74777601e-29
 2.43447987e-29
 -1.51681888e-34
 -2.24698608e-29
 3.66052025e-29
 -3.03603673e-34
 -1.64481429e-29
 4.10501375e-29
 -4.02020032e-34
 -1.16457613e-29
 1.11259957e-29
 1.30612977e-34
 -3.91882176e-29
 2.16050701e-29
 -1.03504975e-34
 -2.43362343e-29
 2.73781685e-29
 -1.11768988e-34
 -2.29654522e-29
 -1.81139899e-30
 3.34566298e-35
 -6.79374195e-30
 7.29433027e-30
 1.93556808e-34
 -3.33492585e-29
 4.23545277e-29
 -3.94156893e-34
 -6.38940425e-30
 2.35504910e-29
 4.83398519e-35
 -3.95955037e-29
 8.24026280e-30
 7.09959917e-36
 -1.85283549e-29
 2.84974979e-29
 -1.39128022e-34
 -2.32153010e-29
 -4.14221008e-29
 7.28495864e-34
 -4.58351917e-29
 -3.64869986e-29
 4.75945632e-34
 -1.42185615e-29
 -6.02729586e-29
 7.93115773e-34
 -1.23417706e-29
 -1.79837184e-29
 2.70660077e-34
 -1.77090718e-29
 -2.01781441e-29
 4.68262353e-34
 -3.41340057e-29
 -4.04681395e-29
 5.93777232e-34
 -1.80989131e-29
 -8.57994869e-30
 1.14632315e-34
 -5.88241598e-30
 -8.56995943e-30
 2.70747734e-34
 -2.80361263e-29
 -3.80928330e-29
 4.80772368e-34
 -6.69204834e-30
 -6.31835850e-30
 1.89995691e-34
 -2.03900565e-29
 -4.35955849e-29
 6.84764903e-34
 -2.29345230e-29
 -1.64652731e-29
 3.36566555e-34
 -3.31671889e-29
 2.31013612e-29
 6.43423363e-35
 -2.97685364e-29
 4.04120197e-29
 -1.31172921e-34
 -1.88767180e-29
 4.64581337e-29
 -9.11529461e-35
 -3.85252825e-29
 9.35640314e-30
 1.74110676e-34
 -2.82333686e-29
 9.24000400e-30
 1.30165807e-34
 -2.25278403e-29
 2.77897517e-29
 -1.90333933e-34
 -5.86296935e-30
 1.70494423e-29
 2.18702744e-34
 -4.12083707e-29
 1.48663841e-29
 -8.34795106e-35
 -2.76347889e-30
 4.85487217e-29
 -3.70229201e-34
 -9.13924401e-30
 4.12986818e-29
 -1.59634888e-34
 -1.92272372e-29
 2.05164607e-29
 5.15830626e-35
 -2.73183533e-29
 8.76534503e-30
 9.06279455e-35
 -1.74517254e-29
 -4.87994115e-29
 1.03561080e-33
 -6.61662982e-29
 -1.13240618e-29
 5.50606513e-34
 -5.04919248e-29
 -3.66936870e-29
 6.55246265e-34
 -3.79188613e-29
 -1.45337204e-29
 5.66568808e-34
 -5.02281446e-29
 -3.58937640e-29
 4.16397017e-34
 -1.95594451e-29
 -2.64055919e-29
 2.80419802e-34
 -7.80128017e-30
 -4.74110086e-30
 2.36324920e-34
 -2.21367185e-29
 -8.76026839e-30
 7.26591655e-35
 -5.68524175e-30
 -2.35593323e-29
 2.70712974e-34
 -5.03638730e-30
 -8.41419293e-29
 1.01354071e-33
 -4.13662037e-29
 -2.79487342e-29
 5.27446152e-34
 -3.11261485e-29
 -1.42470397e-29
 4.17008366e-34
 -3.45345299e-29
 1.41514955e-29
 -4.41482296e-34
 2.98896925e-29
 7.14016499e-29
 -7.86549351e-34
 2.87931703e-29
 5.79692756e-29
 -7.73621026e-34
 2.54835740e-29
 7.41969025e-30
 -3.48527096e-34
 2.72725192e-29
 1.74508226e-29
 -4.21314670e-34
 2.99726338e-29
 2.63979243e-29
 -3.75607799e-34
 1.26970543e-29
 6.45640705e-30
 -1.02607754e-34
 5.22120661e-30
 1.09515439e-30
 -4.03766514e-34
 3.89967983e-29
 2.54280741e-29
 -3.27084357e-34
 8.03887974e-30
 1.89168510e-29
 -4.62173843e-34
 2.79675181e-29
 2.53304686e-29
 -6.29249105e-34
 4.14107829e-29
 1.96263606e-29
 -3.74118687e-34
 1.84534828e-29
 -2.39895865e-29
 -7.05623487e-35
 3.21496057e-29
 -3.86358790e-29
 7.30073540e-35
 1.86915142e-29
 -5.48560520e-29
 2.52918561e-34
 1.76918302e-29
 -1.04137582e-29
 -2.07567071e-34
 2.93918998e-29
 -3.98955094e-29
 -1.71886661e-34
 4.07202257e-29
 -2.54660721e-29
 1.33151264e-34
 1.11199644e-29
 -1.51358955e-29
 -1.21945508e-34
 1.77108503e-29
 -7.74843220e-30
 -1.85173214e-34
 2.64110507e-29
 -4.35635934e-29
 3.00487488e-34
 1.19352843e-29
 -1.60094386e-29
 -7.89289585e-35
 2.46080989e-29
 -9.54718832e-30
 -2.08045442e-34
 2.70684248e-29
 -1.66258836e-29
 3.05684379e-35
 1.37327035e-29
 -2.72977222e-02
 -8.77947599e-08
 2.64252163e-02
 -2.49095075e-02
 1.85694773e-07
 2.49299631e-02
 -2.69560292e-02
 -1.14598222e-07
 2.87390221e-02
 -2.85263173e-02
 -6.89569859e-08
 2.92138066e-02
 -2.98055690e-02
 8.44537507e-09
 2.82875150e-02
 -3.20829973e-02
 1.62223529e-07
 2.65699532e-02
 -2.86540296e-02
 9.05561492e-08
 3.03435177e-02
 -2.96048410e-02
 1.13988662e-07
 2.96907127e-02
 -2.95421258e-02
 7.34674188e-08
 2.96411365e-02
 -2.93931421e-02
 -3.78386957e-08
 2.94317622e-02
 -2.85612568e-02
 -2.86635937e-10
 2.87941545e-02
 -2.79669017e-02
 8.02514322e-08
 2.81686727e-02
 -2.73507051e-02
 7.07405334e-08
 2.75309868e-02
 -2.66607776e-02
 4.16330614e-08
 2.68724300e-02
 -2.57240292e-02
 4.92111276e-08
 2.61094477e-02
 -2.26554535e-02
 1.94443459e-07
 2.39767004e-02
 -1.62976198e-02
 -3.10354380e-07