<?xml version="1.0"?>
<VTKFile type="UnstructuredGrid"  byte_order="LittleEndian">
<UnstructuredGrid>
<Piece NumberOfPoints="2260" NumberOfCells=" 4518">
<Points>
<DataArray type="Float32" NumberOfComponents="3" format="ascii">
-0.000000 -0.000000 0.000000 -0.000000 0.100000 0.000000 0.000000 1.000000 0.000000 0.000000 0.900000 0.000000 -0.000000 0.400000 0.000000 0.000000 0.800000 0.000000 0.066670 0.866665 0.000000 0.000000 0.500000 0.000000 0.000000 0.700000 0.000000 0.000000 0.600000 0.000000 -0.000000 0.300000 0.000000 -0.000000 0.200000 0.000000 0.074997 0.149999 0.000000 0.099992 -0.000005 0.000000 0.133326 0.066662 0.000000 0.100008 0.999995 0.000000 0.133341 0.933329 0.000000 0.066665 0.333333 0.000000 0.071428 0.428571 0.000000 0.120004 0.759998 0.000000 0.200007 0.799995 0.000000 0.150006 0.849996 0.000000 0.071429 0.571428 0.000000 0.133336 0.666665 0.000000 0.119996 0.239998 0.000000 0.179992 0.159995 0.000000 0.199986 -0.000009 0.000000 0.224987 0.074992 0.000000 0.200014 0.999991 0.000000 0.240013 0.919991 0.000000 0.142855 0.357141 0.000000 0.139682 0.460316 0.000000 0.178572 0.535712 0.000000 0.214291 0.714281 0.000000 0.266678 0.833325 0.000000 0.196431 0.624997 0.000000 0.266656 0.166658 0.000000 0.199994 0.249996 0.000000 0.221424 0.328567 0.000000 0.299980 -0.000013 0.000000 0.333315 0.066653 0.000000 0.357127 0.142844 0.000000 0.300020 0.999987 0.000000 0.333352 0.933320 0.000000 0.357159 0.857130 0.000000 0.333345 0.783323 0.000000 0.232141 0.417853 0.000000 0.250000 0.507138 0.000000 0.309532 0.709515 0.000000 0.315480 0.594039 0.000000 0.299993 0.299992 0.000000 0.328560 0.221418 0.000000 0.321424 0.378563 0.000000 0.399974 -0.000019 0.000000 0.428554 0.171411 0.000000 0.428548 0.071410 0.000000 0.400026 0.999981 0.000000 0.428595 0.928553 0.000000 0.404772 0.704748 0.000000 0.438589 0.828554 0.000000 0.321428 0.478563 0.000000 0.407744 0.622010 0.000000 0.410716 0.539272 0.000000 0.399989 0.283319 0.000000 0.410709 0.389272 0.000000 0.499968 -0.000025 0.000000 0.499981 0.199978 0.000000 0.499975 0.099977 0.000000 0.599962 -0.000033 0.000000 0.500032 0.999975 0.000000 0.500025 0.899977 0.000000 0.500012 0.699979 0.000000 0.520019 0.799977 0.000000 0.455355 0.469626 0.000000 0.500006 0.599980 0.000000 0.499988 0.299979 0.000000 0.499994 0.399980 0.000000 0.599970 0.099969 0.000000 0.579979 0.199972 0.000000 0.699956 -0.000042 0.000000 0.600022 0.799970 0.000000 0.600038 0.999967 0.000000 0.600030 0.899969 0.000000 0.600015 0.699971 0.000000 0.550000 0.499976 0.000000 0.600007 0.599972 0.000000 0.700044 0.999958 0.000000 0.629985 0.299969 0.000000 0.599993 0.399972 0.000000 0.729982 0.299959 0.000000 0.709965 0.099959 0.000000 0.699975 0.199961 0.000000 0.799961 0.099950 0.000000 0.799951 -0.000052 0.000000 0.680025 0.799963 0.000000 0.700034 0.899960 0.000000 0.700017 0.699962 0.000000 0.700008 0.599963 0.000000 0.650000 0.499968 0.000000 0.800009 0.599953 0.000000 0.800049 0.999948 0.000000 0.739991 0.399959 0.000000 0.814981 0.299951 0.000000 0.799971 0.199951 0.000000 0.889957 0.099940 0.000000 0.899946 -0.000063 0.000000 0.810039 0.899949 0.000000 0.830020 0.699949 0.000000 0.800029 0.799951 0.000000 0.800000 0.499953 0.000000 0.880010 0.599944 0.000000 0.900054 0.999937 0.000000 0.899979 0.299941 0.000000 0.859990 0.399946 0.000000 0.919967 0.199938 0.000000 0.999953 0.099926 0.000000 0.999941 -0.000075 0.000000 0.915021 0.699939 0.000000 0.900043 0.899939 0.000000 0.900032 0.799940 0.000000 0.960011 0.599934 0.000000 0.950000 0.499936 0.000000 1.000059 0.999925 0.000000 0.984977 0.299931 0.000000 0.999988 0.399929 0.000000 0.999965 0.199928 0.000000 1.089949 0.099915 0.000000 1.099936 -0.000088 0.000000 1.000023 0.699929 0.000000 1.010047 0.899925 0.000000 1.020036 0.799925 0.000000 1.040012 0.599924 0.000000 1.050000 0.499923 0.000000 1.100064 0.999912 0.000000 1.199931 -0.000102 0.000000 1.069975 0.299919 0.000000 1.099988 0.399916 0.000000 1.119962 0.199912 0.000000 1.199945 0.099899 0.000000 1.085025 0.699917 0.000000 1.100051 0.899913 0.000000 1.100038 0.799915 0.000000 1.150000 0.499909 0.000000 1.120013 0.599913 0.000000 1.200069 0.999898 0.000000 1.200055 0.899899 0.000000 1.299927 -0.000117 0.000000 1.199987 0.399902 0.000000 1.219959 0.199897 0.000000 1.199973 0.299901 0.000000 1.299957 0.199885 0.000000 1.299942 0.099884 0.000000 1.170026 0.699906 0.000000 1.180040 0.799903 0.000000 1.240035 0.749895 0.000000 1.250000 0.499894 0.000000 1.200013 0.599902 0.000000 1.300073 0.999883 0.000000 1.300058 0.899884 0.000000 1.399922 -0.000133 0.000000 1.399938 0.099868 0.000000 1.299986 0.399887 0.000000 1.299971 0.299886 0.000000 1.379955 0.199873 0.000000 1.350000 0.499879 0.000000 1.300029 0.699886 0.000000 1.320044 0.799882 0.000000 1.300014 0.599887 0.000000 1.400015 0.599871 0.000000 1.400046 0.799869 0.000000 1.400078 0.999867 0.000000 1.400062 0.899868 0.000000 1.499918 -0.000150 0.000000 1.499935 0.099852 0.000000 1.399985 0.399871 0.000000 1.429969 0.299865 0.000000 1.519951 0.199849 0.000000 1.450000 0.499862 0.000000 1.400030 0.699870 0.000000 1.480016 0.599857 0.000000 1.480048 0.799856 0.000000 1.500065 0.899852 0.000000 1.500082 0.999850 0.000000 1.599914 -0.000167 0.000000 1.599932 0.099834 0.000000 1.499984 0.399854 0.000000 1.529967 0.299848 0.000000 1.599949 0.199835 0.000000 1.550000 0.499845 0.000000 1.500032 0.699853 0.000000 1.560017 0.599843 0.000000 1.600086 0.999833 0.000000 1.600051 0.799835 0.000000 1.590068 0.899836 0.000000 1.699910 -0.000185 0.000000 1.699947 0.199817 0.000000 1.689929 0.099818 0.000000 1.599983 0.399836 0.000000 1.614966 0.299833 0.000000 1.650000 0.499827 0.000000 1.699965 0.299817 0.000000 1.640017 0.599829 0.000000 1.600034 0.699836 0.000000 1.799907 -0.000204 0.000000 1.700090 0.999815 0.000000 1.710071 0.899814 0.000000 1.700053 0.799817 0.000000 1.799926 0.099797 0.000000 1.740018 0.599810 0.000000 1.779945 0.199802 0.000000 1.699982 0.399818 0.000000 1.750000 0.499808 0.000000 1.784963 0.299801 0.000000 1.730036 0.699812 0.000000 1.827523 0.624793 0.000000 1.899903 -0.000224 0.000000 1.820056 0.799794 0.000000 1.800093 0.999796 0.000000 1.800074 0.899797 0.000000 1.899943 0.199778 0.000000 1.909923 0.099775 0.000000 1.825009 0.549794 0.000000 1.869962 0.299785 0.000000 1.799982 0.399799 0.000000 1.830037 0.699792 0.000000 1.900019 0.599779 0.000000 1.999920 0.099757 0.000000 1.999900 -0.000244 0.000000 1.900057 0.799778 0.000000 1.900077 0.899777 0.000000 1.900097 0.999776 0.000000 1.999961 0.299758 0.000000 1.999941 0.199757 0.000000 1.900000 0.499779 0.000000 2.019980 0.399754 0.000000 1.939981 0.399771 0.000000 1.970039 0.699764 0.000000 2.000020 0.599758 0.000000 2.099939 0.199736 0.000000 2.099918 0.099736 0.000000 2.099897 -0.000265 0.000000 1.980059 0.799762 0.000000 2.040050 0.749749 0.000000 2.000100 0.999756 0.000000 1.990079 0.899759 0.000000 2.099959 0.299737 0.000000 2.099980 0.399737 0.000000 2.050000 0.499748 0.000000 2.100041 0.699737 0.000000 2.100020 0.599737 0.000000 2.179937 0.199719 0.000000 2.199916 0.099714 0.000000 2.199894 -0.000287 0.000000 2.040070 0.849749 0.000000 2.120062 0.799732 0.000000 2.100103 0.999735 0.000000 2.100082 0.899736 0.000000 2.229958 0.299709 0.000000 2.199979 0.399716 0.000000 2.150000 0.499727 0.000000 2.200021 0.599716 0.000000 2.200042 0.699715 0.000000 2.319935 0.199688 0.000000 2.299913 0.099692 0.000000 2.299891 -0.000309 0.000000 2.200063 0.799715 0.000000 2.200106 0.999713 0.000000 2.200084 0.899714 0.000000 2.280064 0.799697 0.000000 2.329957 0.299686 0.000000 2.299978 0.399693 0.000000 2.250000 0.499705 0.000000 2.300021 0.599693 0.000000 2.300043 0.699693 0.000000 2.399934 0.199670 0.000000 2.399911 0.099669 0.000000 2.399889 -0.000332 0.000000 2.300109 0.999691 0.000000 2.300086 0.899692 0.000000 2.380066 0.799674 0.000000 2.414956 0.299667 0.000000 2.399978 0.399671 0.000000 2.350000 0.499682 0.000000 2.400022 0.599671 0.000000 2.430044 0.699663 0.000000 2.499886 -0.000355 0.000000 2.479933 0.199651 0.000000 2.499955 0.299647 0.000000 2.499909 0.099646 0.000000 2.400089 0.899669 0.000000 2.400111 0.999668 0.000000 2.500068 0.799647 0.000000 2.499978 0.399647 0.000000 2.450000 0.499659 0.000000 2.500022 0.599647 0.000000 2.530045 0.699640 0.000000 2.599884 -0.000378 0.000000 2.599908 0.099622 0.000000 2.584954 0.299627 0.000000 2.579931 0.199628 0.000000 2.659918 0.149608 0.000000 2.500091 0.899646 0.000000 2.500114 0.999645 0.000000 2.600092 0.899622 0.000000 2.620069 0.799618 0.000000 2.630046 0.699616 0.000000 2.599977 0.399624 0.000000 2.600000 0.499624 0.000000 2.640023 0.599614 0.000000 2.699882 -0.000402 0.000000 2.709906 0.099596 0.000000 2.669953 0.299607 0.000000 2.719929 0.199594 0.000000 2.699977 0.399599 0.000000 2.600116 0.999622 0.000000 2.700118 0.999598 0.000000 2.700094 0.899598 0.000000 2.700070 0.799599 0.000000 2.710053 0.724597 0.000000 2.710017 0.574597 0.000000 2.720035 0.649594 0.000000 2.700000 0.499600 0.000000 2.799904 0.099574 0.000000 2.799880 -0.000427 0.000000 2.819928 0.199569 0.000000 2.799952 0.299575 0.000000 2.799976 0.399575 0.000000 2.800120 0.999573 0.000000 2.800096 0.899574 0.000000 2.800071 0.799574 0.000000 2.800048 0.699575 0.000000 2.800024 0.599575 0.000000 2.850000 0.499563 0.000000 2.899927 0.199549 0.000000 2.899903 0.099549 0.000000 2.899878 -0.000452 0.000000 2.899976 0.399550 0.000000 2.899952 0.299550 0.000000 2.900122 0.999548 0.000000 2.900097 0.899549 0.000000 2.920073 0.799544 0.000000 2.900048 0.699550 0.000000 2.900024 0.599550 0.000000 2.950000 0.499537 0.000000 2.979927 0.199529 0.000000 2.999876 -0.000477 0.000000 2.999901 0.099524 0.000000 2.999975 0.399525 0.000000 3.029951 0.299517 0.000000 3.000025 0.599525 0.000000 3.000124 0.999523 0.000000 3.000099 0.899524 0.000000 3.000074 0.799524 0.000000 3.000049 0.699524 0.000000 3.050000 0.499512 0.000000 3.099875 -0.000502 0.000000 3.119925 0.199493 0.000000 3.099900 0.099498 0.000000 3.099975 0.399499 0.000000 3.129950 0.299491 0.000000 3.080025 0.5995
[...]
<PointData>
<DataArray type="Float32" Name="Displacement" NumberOfComponents="3" format="ascii">
-4.42717861e-25 -2.17967396e-25 0.00000000e+00 -3.89815912e-25 -6.19468741e-26 0.00000000e+00 4.42698238e-25 -2.17940944e-25 0.00000000e+00 3.90982514e-25 -6.20303578e-26 0.00000000e+00 -9.01972342e-26 8.38532256e-27 0.00000000e+00 2.78010533e-25 -1.91969502e-26 0.00000000e+00 2.86808017e-06 -1.34912420e-06 0.00000000e+00 4.76793479e-29 1.10415328e-26 0.00000000e+00 1.81853676e-25 -2.80988730e-27 0.00000000e+00 8.98398309e-26 7.28301656e-27 0.00000000e+00 -1.81131449e-25 -1.24903837e-27 0.00000000e+00 -2.77304626e-25 -1.96313444e-26 0.00000000e+00 -3.06337552e-06 -1.41434543e-06 0.00000000e+00 -7.71814757e-06 -4.83256099e-06 0.00000000e+00 -7.60145394e-06 -4.53800658e-06 0.00000000e+00 7.71902614e-06 -4.83502663e-06 0.00000000e+00 7.60414105e-06 -4.54173778e-06 0.00000000e+00 -1.20115749e-06 -3.76136569e-07 0.00000000e+00 -5.46980743e-07 -2.81225937e-07 0.00000000e+00 3.57032377e-06 -1.83894144e-06 0.00000000e+00 7.26324924e-06 -4.87265015e-06 0.00000000e+00 6.39986547e-06 -3.69751115e-06 0.00000000e+00 5.46841591e-07 -2.77706334e-07 0.00000000e+00 2.49092113e-06 -1.63789036e-06 0.00000000e+00 -3.57091972e-06 -1.84433759e-06 0.00000000e+00 -7.50856361e-06 -4.64729465e-06 0.00000000e+00 -1.40153015e-05 -8.57227587e-06 0.00000000e+00 -1.25442657e-05 -7.96430686e-06 0.00000000e+00 1.40186821e-05 -8.57254781e-06 0.00000000e+00 1.31677198e-05 -8.51544246e-06 0.00000000e+00 -2.29175657e-06 -1.77981758e-06 0.00000000e+00 -6.12322424e-07 -1.45220019e-06 0.00000000e+00 7.18882006e-07 -2.50467883e-06 0.00000000e+00 5.41305235e-06 -4.52969834e-06 0.00000000e+00 1.10927504e-05 -8.18791159e-06 0.00000000e+00 2.82023393e-06 -3.31863976e-06 0.00000000e+00 -1.10938363e-05 -8.18777335e-06 0.00000000e+00 -5.92527840e-06 -4.30896398e-06 0.00000000e+00 -4.43852150e-06 -4.48348828e-06 0.00000000e+00 -2.02307547e-05 -1.30268272e-05 0.00000000e+00 -1.88034101e-05 -1.33225512e-05 0.00000000e+00 -1.61174830e-05 -1.32464493e-05 0.00000000e+00 2.02326228e-05 -1.30288608e-05 0.00000000e+00 1.88041558e-05 -1.33244375e-05 0.00000000e+00 1.61174321e-05 -1.32477562e-05 0.00000000e+00 1.16583305e-05 -1.08349423e-05 0.00000000e+00 -2.20858124e-06 -4.46839249e-06 0.00000000e+00 2.07748045e-07 -5.06336846e-06 0.00000000e+00 7.82888492e-06 -8.75404021e-06 0.00000000e+00 3.51984636e-06 -8.28376506e-06 0.00000000e+00 -7.21698098e-06 -8.18719946e-06 0.00000000e+00 -1.12777807e-05 -1.05164190e-05 0.00000000e+00 -4.65106314e-06 -8.71983411e-06 0.00000000e+00 -2.63281181e-05 -1.85444424e-05 0.00000000e+00 -1.75984678e-05 -1.71493084e-05 0.00000000e+00 -2.35579664e-05 -1.88560971e-05 0.00000000e+00 2.63301408e-05 -1.85474019e-05 0.00000000e+00 2.35580901e-05 -1.88586000e-05 0.00000000e+00 1.00971874e-05 -1.41213814e-05 0.00000000e+00 1.79984399e-05 -1.78085575e-05 0.00000000e+00 -8.15081307e-07 -8.40712346e-06 0.00000000e+00 5.99532405e-06 -1.36902054e-05 0.00000000e+00 1.93373808e-06 -1.35741875e-05 0.00000000e+00 -1.05787412e-05 -1.39380709e-05 0.00000000e+00 -5.47576383e-06 -1.38169580e-05 0.00000000e+00 -3.22805827e-05 -2.52065329e-05 0.00000000e+00 -1.85551144e-05 -2.16985190e-05 0.00000000e+00 -2.52358859e-05 -2.32446182e-05 0.00000000e+00 -3.80658530e-05 -3.30188814e-05 0.00000000e+00 3.22823216e-05 -2.52111477e-05 0.00000000e+00 2.52349691e-05 -2.32474649e-05 0.00000000e+00 1.21820731e-05 -2.05824290e-05 0.00000000e+00 1.92670668e-05 -2.31936974e-05 0.00000000e+00 -1.66187692e-06 -1.65110887e-05 0.00000000e+00 6.03289755e-06 -1.99068891e-05 0.00000000e+00 -1.21844141e-05 -2.05803135e-05 0.00000000e+00 -6.03558055e-06 -1.99067308e-05 0.00000000e+00 -2.98892392e-05 -3.11177064e-05 0.00000000e+00 -2.13777748e-05 -2.79493852e-05 0.00000000e+00 -4.36727496e-05 -4.19589451e-05 0.00000000e+00 2.20677248e-05 -2.96286944e-05 0.00000000e+00 3.80678939e-05 -3.30241746e-05 0.00000000e+00 2.98869745e-05 -3.11219846e-05 0.00000000e+00 1.45392760e-05 -2.85510778e-05 0.00000000e+00 -2.14325824e-09 -2.35369826e-05 0.00000000e+00 7.21576771e-06 -2.78994121e-05 0.00000000e+00 4.36733171e-05 -4.19660428e-05 0.00000000e+00 -1.52330058e-05 -3.11607328e-05 0.00000000e+00 -7.21950664e-06 -2.78989264e-05 0.00000000e+00 -1.74780562e-05 -4.05904029e-05 0.00000000e+00 -3.48304129e-05 -4.10811517e-05 0.00000000e+00 -2.54612496e-05 -3.86824431e-05 0.00000000e+00 -3.87358632e-05 -5.02190342e-05 0.00000000e+00 -4.90942111e-05 -5.19935566e-05 0.00000000e+00 2.47881599e-05 -3.67863140e-05 0.00000000e+00 3.43845168e-05 -4.01256148e-05 0.00000000e+00 1.68078514e-05 -3.76485114e-05 0.00000000e+00 8.35272658e-06 -3.70236121e-05 0.00000000e+00 -2.65313815e-09 -3.21081716e-05 0.00000000e+00 9.44650947e-06 -4.72391330e-05 0.00000000e+00 4.90938437e-05 -5.20035865e-05 0.00000000e+00 -8.80233893e-06 -4.09797321e-05 0.00000000e+00 -1.93216256e-05 -4.94573869e-05 0.00000000e+00 -2.87314215e-05 -4.88319856e-05 0.00000000e+00 -4.25185572e-05 -6.02143846e-05 0.00000000e+00 -5.43277856e-05 -6.30866707e-05 0.00000000e+00 3.91550020e-05 -5.12939041e-05 0.00000000e+00 1.96313358e-05 -5.11042344e-05 0.00000000e+00 2.87234743e-05 -4.88379374e-05 0.00000000e+00 -4.42140324e-09 -4.70375962e-05 0.00000000e+00 1.02916592e-05 -5.61717025e-05 0.00000000e+00 5.43257884e-05 -6.30991344e-05 0.00000000e+00 -2.11071965e-05 -5.90819182e-05 0.00000000e+00 -1.00933275e-05 -5.38742242e-05 0.00000000e+00 -3.25015135e-05 -6.24040404e-05 0.00000000e+00 -4.69763254e-05 -7.35536742e-05 0.00000000e+00 -5.93737968e-05 -7.52010965e-05 0.00000000e+00 2.14042666e-05 -6.08615337e-05 0.00000000e+00 4.29210668e-05 -6.13838056e-05 0.00000000e+00 3.18734055e-05 -6.00453095e-05 0.00000000e+00 1.11111331e-05 -6.57596611e-05 0.00000000e+00 -7.23808213e-09 -6.43361491e-05 0.00000000e+00 5.93702644e-05 -7.52157939e-05 0.00000000e+00 -2.28369136e-05 -6.94420596e-05 0.00000000e+00 -1.15277535e-05 -7.07913350e-05 0.00000000e+00 -3.49235270e-05 -7.22658151e-05 0.00000000e+00 -5.04893542e-05 -8.53542369e-05 0.00000000e+00 -6.42335508e-05 -8.82983586e-05 0.00000000e+00 2.31208214e-05 -7.13500340e-05 0.00000000e+00 4.73578439e-05 -7.48354214e-05 0.00000000e+00 3.55016819e-05 -7.48374223e-05 0.00000000e+00 1.19058504e-05 -7.59845570e-05 0.00000000e+00 -9.23362009e-09 -7.71230189e-05 0.00000000e+00 6.42279047e-05 -8.83148023e-05 0.00000000e+00 -6.89079243e-05 -1.02341670e-04 0.00000000e+00 -2.45123247e-05 -8.05148084e-05 0.00000000e+00 -1.25065699e-05 -8.40557695e-05 0.00000000e+00 -3.84218511e-05 -8.82300737e-05 0.00000000e+00 -5.46207630e-05 -1.00817335e-04 0.00000000e+00 2.47825155e-05 -8.25464231e-05 0.00000000e+00 5.08534577e-05 -8.67241979e-05 0.00000000e+00 3.78301775e-05 -8.54827740e-05 0.00000000e+00 -1.18141088e-08 -9.08714501e-05 0.00000000e+00 1.26760042e-05 -8.68264979e-05 0.00000000e+00 6.88994842e-05 -1.02359358e-04 0.00000000e+00 5.45962102e-05 -1.00830672e-04 0.00000000e+00 -7.34006171e-05 -1.17293297e-04 0.00000000e+00 -1.34483989e-05 -9.82635975e-05 0.00000000e+00 -4.12155350e-05 -1.02566824e-04 0.00000000e+00 -2.69702959e-05 -9.87758394e-05 0.00000000e+00 -4.33717869e-05 -1.14686569e-04 0.00000000e+00 -5.82233879e-05 -1.15829549e-04 0.00000000e+00 2.63901693e-05 -9.44286003e-05 0.00000000e+00 4.00866884e-05 -9.67316373e-05 0.00000000e+00 3.46765119e-05 -1.05091807e-04 0.00000000e+00 -1.46953196e-08 -1.05544270e-04 0.00000000e+00 1.34221664e-05 -9.82670026e-05 0.00000000e+00 7.33885463e-05 -1.17313255e-04 0.00000000e+00 5.81926688e-05 -1.15845214e-04 0.00000000e+00 -7.77107052e-05 -1.33116613e-04 0.00000000e+00 -6.16814068e-05 -1.31713285e-04 0.00000000e+00 -1.43539028e-05 -1.13378250e-04 0.00000000e+00 -2.87772200e-05 -1.13868875e-04 0.00000000e+00 -4.54585752e-05 -1.27363033e-04 0.00000000e+00 -1.78861086e-08 -1.21104946e-04 0.00000000e+00 2.87452931e-05 -1.13877002e-04 0.00000000e+00 4.38667921e-05 -1.17815296e-04 0.00000000e+00 1.43214857e-05 -1.13381546e-04 0.00000000e+00 1.51843324e-05 -1.29366686e-04 0.00000000e+00 4.59312614e-05 -1.30629764e-04 0.00000000e+00 7.76958113e-05 -1.33139722e-04 0.00000000e+00 6.16439065e-05 -1.31730048e-04 0.00000000e+00 -8.18434564e-05 -1.49776781e-04 0.00000000e+00 -6.49971989e-05 -1.48432533e-04 0.00000000e+00 -1.52234288e-05 -1.29362961e-04 0.00000000e+00 -3.10185023e-05 -1.34786183e-04 0.00000000e+00 -4.89461127e-05 -1.50832624e-04 0.00000000e+00 -2.14932019e-08 -1.37517796e-04 0.00000000e+00 3.04730784e-05 -1.29841515e-04 0.00000000e+00 1.58484218e-05 -1.42757039e-04 0.00000000e+00 4.79266055e-05 -1.43978861e-04 0.00000000e+00 6.49518042e-05 -1.48450796e-04 0.00000000e+00 8.18249318e-05 -1.49802188e-04 0.00000000e+00 -8.57993800e-05 -1.67236620e-04 0.00000000e+00 -6.81718084e-05 -1.65951657e-04 0.00000000e+00 -1.60576128e-05 -1.46181381e-04 0.00000000e+00 -3.26608460e-05 -1.51828135e-04 0.00000000e+00 -5.08462399e-05 -1.64947385e-04 0.00000000e+00 -2.54582702e-08 -1.54747046e-04 0.00000000e+00 3.21290754e-05 -1.46640334e-04 0.00000000e+00 1.64897247e-05 -1.56662689e-04 0.00000000e+00 8.57754276e-05 -1.67264821e-04 0.00000000e+00 5.07917721e-05 -1.64963552e-04 0.00000000e+00 6.78075667e-05 -1.64184574e-04 0.00000000e+00 -8.95802223e-05 -1.85461671e-04 0.00000000e+00 -5.31271908e-05 -1.83276527e-04 0.00000000e+00 -7.09098022e-05 -1.82373929e-04 0.00000000e+00 -1.68568477e-05 -1.63798613e-04 0.00000000e+00 -3.40017505e-05 -1.66934944e-04 0.00000000e+00 -2.98019849e-08 -1.72756845e-04 0.00000000e+00 -3.52924872e-05 -1.82590229e-04 0.00000000e+00 1.71082611e-05 -1.71066262e-04 0.00000000e+00 3.37141028e-05 -1.64239013e-04 0.00000000e+00 -9.31882023e-05 -2.04418437e-04 0.00000000e+00 8.95519552e-05 -1.85493569e-04 0.00000000e+00 7.14389607e-05 -1.86126636e-04 0.00000000e+00 5.30636826e-05 -1.83293669e-04 0.00000000e+00 -7.41047261e-05 -2.03248739e-04 0.00000000e+00 1.78501032e-05 -1.89743339e-04 0.00000000e+00 -5.48776115e-05 -1.98466776e-04 0.00000000e+00 -1.76215090e-05 -1.82179385e-04 0.00000000e+00 -3.35816317e-08 -1.91512721e-04 0.00000000e+00 -3.65338310e-05 -1.98772366e-04 0.00000000e+00 3.56695091e-05 -1.88253733e-04 0.00000000e+00 2.31066078e-05 -2.06747660e-04 0.00000000e+00 -9.66265216e-05 -2.24071773e-04 0.00000000e+00 5.56529194e-05 -2.06249533e-04 0.00000000e+00 9.31554459e-05 -2.04452124e-04 0.00000000e+00 7.40318210e-05 -2.03273492e-04 0.00000000e+00 -5.73809193e-05 -2.22088463e-04 0.00000000e+00 -7.71350242e-05 -2.24965814e-04 0.00000000e+00 9.20146067e-06 -2.06082943e-04 0.00000000e+00 -3.77256511e-05 -2.15459862e-04 0.00000000e+00 -1.83514330e-05 -2.01288480e-04 0.00000000e+00 3.70944581e-05 -2.07557052e-04 0.00000000e+00 1.89645816e-05 -2.21099894e-04 0.00000000e+00 -7.94934676e-05 -2.43329283e-04 0.00000000e+00 -9.98960459e-05 -2.44386902e-04 0.00000000e+00 5.72972604e-05 -2.22108152e-04 0.00000000e+00 7.67828533e-05 -2.22984934e-04 0.00000000e+00 9.65884974e-05 -2.24107222e-04 0.00000000e+00 -3.94552335e-05 -2.41912639e-04 0.00000000e+00 -5.93560726e-05 -2.42503287e-04 0.00000000e+00 -4.14697148e-08 -2.20971226e-04 0.00000000e+00 -1.98404305e-05 -2.45727133e-04 0.00000000e+00 -1.93181186e-05 -2.29201265e-04 0.00000000e+00 3.89748129e-05 -2.35724743e-04 0.00000000e+00 1.96169258e-05 -2.41564921e-04 0.00000000e+00 -6.12318036e-05 -2.63546244e-04 0.00000000e+00 -8.19878987e-05 -2.64329399e-04 0.00000000e+00 -1.02999729e-04 -2.65330891e-04 0.00000000e+00 5.88764378e-05 -2.38389679e-04 0.00000000e+00 4.99175403e-05 -2.50546524e-04 0.00000000e+00 9.98519899e-05 -2.44424387e-04 0.00000000e+00 7.91429193e-05 -2.41292131e-04 0.00000000e+00 -4.07091684e-05 -2.62985588e-04 0.00000000e+00 -2.03424406e-05 -2.62650108e-04 0.00000000e+00 -5.03469941e-08 -2.51915364e-04 0.00000000e+00 4.06028594e-05 -2.63001188e-04 0.00000000e+00 2.02357933e-05 -2.62657151e-04 0.00000000e+00 -6.26615074e-05 -2.80810520e-04 0.00000000e+00 -8.43512753e-05 -2.85924471e-04 0.00000000e+00 -1.05938649e-04 -2.86870665e-04 0.00000000e+00 7.01788158e-05 -2.51248188e-04 0.00000000e+00 6.14861274e-05 -2.67849682e-04 0.00000000e+00 1.02949300e-04 -2.65371084e-04 0.00000000e+00 8.18811313e-05 -2.64360307e-04 0.00000000e+00 -4.22419471e-05 -2.91264354e-04 0.00000000e+00 -2.09401842e-05 -2.84336595e-04 0.00000000e+00 -5.62537643e-08 -2.73314654e-04 0.00000000e+00 2.08214806e-05 -2.84344249e-04 0.00000000e+00 4.17791889e-05 -2.84669397e-04 0.00000000e+00 -6.50141737e-05 -3.11888085e-04 0.00000000e+00 -8.65851325e-05 -3.08082061e-04 0.00000000e+00 -1.08715190e-04 -3.08974792e-04 0.00000000e+00 6.28904163e-05 -2.85207439e-04 0.00000000e+00 1.05881736e-04 -2.86914321e-04 0.00000000e+00 8.42321970e-05 -2.85956572e-04 0.00000000e+00 6.42321829e-05 -3.02925298e-04 0.00000000e+00 -4.33466557e-05 -3.13656288e-04 0.00000000e+00 -2.15058553e-05 -3.06584174e-04 0.00000000e+00 -6.24695389e-08 -2.95291858e-04 0.00000000e+00 2.13743915e-05 -3.06592789e-04 0.00000000e+00 4.28903440e-05 -3.06899339e-04 0.00000000e+00 -6.62745733e-05 -3.30112758e-04 0.00000000e+00 -8.86914640e-05 -3.30770301e-04 0.00000000e+00 -1.11332985e-04 -3.31609772e-04 0.00000000e+00 1.08652217e-04 -3.09020892e-04 0.00000000e+00 8.64531685e-05 -3.08115501e-04 0.00000000e+00 6.58225545e-05 -3.25552712e-04 0.00000000e+00 -4.42358469e-05 -3.33099364e-04 0.00000000e+00 -2.20398178e-05 -3.29361239e-04 0.00000000e+00 -6.90003645e-08 -3.17814382e-04 0.00000000e+00 2.18951100e-05 -3.29370232e-04 0.00000000e+00 4.42390665e-05 -3.36586090e-04 0.00000000e+00 -1.13791255e-04 -3.54744057e-04 0.00000000e+00 -6.74740440e-05 -3.48656700e-04 0.00000000e+00 -4.50794578e-05 -3.52898816e-04 0.00000000e+00 -9.06713831e-05 -3.53956799e-04 0.00000000e+00 8.85457484e-05 -3.30805779e-04 0.00000000e+00 1.11262510e-04 -3.31657735e-04 0.00000000e+00 6.76054478e-05 -3.53368348e-04 0.00000000e+00 -2.25422591e-05 -3.52635252e-04 0.00000000e+00 -7.57203722e-08 -3.40850209e-04 0.00000000e+00 2.23837142e-05 -3.52644769e-04 0.00000000e+00 4.52036475e-05 -3.59986792e-04 0.00000000e+00 -1.16094547e-04 -3.78346798e-04 0.00000000e+00 -9.25268178e-05 -3.77610617e-04 0.00000000e+00 -4.58784380e-05 -3.73035553e-04 0.00000000e+00 -6.88897271e-05 -3.72259761e-04 0.00000000e+00 -8.17364562e-05 -3.91719048e-04 0.00000000e+00 9.05116249e-05 -3.53994808e-04 0.00000000e+00 1.13713773e-04 -3.54793738e-04 0.00000000e+00 9.23527186e-05 -3.77650547e-04 0.00000000e+00 6.92531321e-05 -3.81855993e-04 0.00000000e+00 4.61060044e-05 -3.83844832e-04 0.00000000e+00 -2.30140467e-05 -3.76375567e-04 0.00000000e+00 -8.62524061e-08 -3.76297743e-04 0.00000000e+00 2.30157257e-05 -3.86005791e-04 0.00000000e+00 -1.18243763e-04 -4.02386097e-04 0.00000000e+00 -9.44259300e-05 -4.04133112e-04 0.00000000e+00 -4.66328856e-05 -3.93489696e-04 0.00000000e+00 -7.07162690e-05 -4.06040053e-04 0.00000000e+00 -2.34550243e-05 -4.00551507e-04 0.00000000e+00 1.16009207e-04 -3.78398458e-04 0.00000000e+00 1.18151278e-04 -4.02439851e-04 0.00000000e+00 9.40704194e-05 -4.01742407e-04 0.00000000e+00 7.02779362e-05 -4.01194819e-04 0.00000000e+00 5.26715376e-05 -4.03323123e-04 0.00000000e+00 1.74545348e-05 -4.02967300e-04 0.00000000e+00 3.50939590e-05 -4.05545405e-04 0.00000000e+00 -9.35542843e-08 -4.00478573e-04 0.00000000e+00 -9.58710298e-05 -4.26197366e-04 0.00000000e+00 -1.20241180e-04 -4.26831713e-04 0.00000000e+00 -7.19119853e-05 -4.30652435e-04 0.00000000e+00 -4.77019094e-05 -4.25344682e-04 0.00000000e+00 -2.38658431e-05 -4.25131962e-04 0.00000000e+00 1.20140649e-04 -4.26887156e-04 0.00000000e+00 9.56665681e-05 -4.26240498e-04 0.00000000e+00 7.14766138e-05 -4.25731152e-04 0.00000000e+00 4.74994740e-05 -4.25365346e-04 0.00000000e+00 2.36637770e-05 -4.25143080e-04 0.00000000e+00 -1.04793713e-07 -4.37499984e-04 0.00000000e+00 -7.28042214e-05 -4.50610212e-04 0.00000000e+00 -9.73629139e-05 -4.51069180e-04 0.00000000e+00 -1.22089361e-04 -4.51653497e-04 0.00000000e+00 -2.42470742e-05 -4.50086722e-04 0.00000000e+00 -4.84556367e-05 -4.50282125e-04 0.00000000e+00 1.21980134e-04 -4.51711472e-04 0.00000000e+00 9.71427799e-05 -4.51113388e-04 0.00000000e+00 7.27963998e-05 -4.55667177e-04 0.00000000e+00 4.82375763e-05 -4.50304273e-04 0.00000000e+00 2.40295249e-05 -4.50097665e-04 0.00000000e+00 -1.12477231e-07 -4.62636410e-04 0.00000000e+00 -7.36397415e-05 -4.70788480e-04 0.00000000e+00 -1.23789156e-04 -4.76821529e-04 0.00000000e+00 -9.87366147e-05 -4.76286950e-04 0.00000000e+00 -2.45987248e-05 -4.75386420e-04 0.00000000e+00 -4.93473999e-05 -4.83212469e-04 0.00000000e+00 2.43658797e-05 -4.75397334e-04 0.00000000e+00 1.23672406e-04 -4.76882269e-04 0.00000000e+00 9.85009465e-05 -4.76331712e-04 0.00000000e+00 7.36054571e-05 -4.75899811e-04 0.00000000e+00 4.89168306e-05 -4.75587760e-04 0.00000000e+00 -1.20278244e-07 -4.88102727e-04 0.00000000e+00 -1.25343737e-04 -5.02307783e-04 0.00000000e+00 -7.49677420e-05 -5.06587094e-04 0.00000000e+00 -9.99943295e-05 -5.01821050e-04 0.00000000e+00 -2.49214208e-05 -5.01001079e-04 0.00000000e+00 -4.99666749e-05 -5.08900033e-04 0.00000000e+00 2.46136897e-05 -4.95865708e-04 0.00000000e+00 9.97423704e-05 -5.01867558e-04 0.00000000e+00 1.25218983e-04 -5.02369541e-04 0.00000000e+00 7.43583223e-05 -4.96333989e-04 0.00000000e+00 4.95378445e-05 -5.01186645e-04 0.00000000e+00 -1.28191758e-07 -5.13869920e-04 0.00000000e+00 -7.56511872e-05 -5.27296390e-04 0.00000000e+00 -1.26755593e-04 -5.28082310e-04 0.00000000e+00 -1.01137317e-04 -5.27642376e-04 0.00000000e+00 -2.52155332e-05 -5.26902266e-04 0.00000000e+00 -5.04482268e-05 -5.30954276e-04 0.00000000e+00 6.24483728e-05 -5.16807835e-04 0.00000000e+00 2.48431679e-05 -5.16520638e-04 0.00000000e+00 1.00761528e-04 -5.25096781e-04 0.00000000e+00 1.26621773e-04 -5.28144941e-04 0.00000000e+00 7.55434157e-05 -5.32536127e-04 0.00000000e+00 5.02589464e-05 -5.34890336e-04 0.00000000e+00 -1.36095522e-07 -5.39909059e-04 0.00000000e+00 -1.28025262e-04 -5.54116035e-04 0.00000000e+00 -7.62800701e-05 -5.48171229e-04 0.00000000e+00 -1.02069149e-04 -5.51104429e-04 0.00000000e+00 -5.08889934e-05 -5.53191931e-04 0.00000000e+00 -2.54814349e-05 -5.53061604e-04 0.00000000e+00 1.27882915e-04 -5.54180879e-04 0.00000000e+00 2.52009231e-05 -5.53073769e-04 0.00000000e+00 5.07488585e-05 -5.61106019e-04 0.00000000e+00 1.01882608e-04 -5.53772959e-04 0.00000000e+00 7.61463161e-05 -5.53450547e-04 0.00000000e+00 -1.29155582e-04 -5.80382475e-04 0.00000000e+00 -1.44151429e-07 -5.66191797e-04 0.00000000e+00 -1.03085658e-04 -5.80034975e-04 0.00000000e+00 -7.69908947e-05 -5.74475096e-04 0.00000000e+00 -5.13562409e-05 -5.79566113e-04 0.00000000e+00 -2.57194661e-05 -5.79450512e-04 0.00000000e+00 1.29005362e-04 -5.80448715e-04 0.00000000e+00 2.54229326e-05 -5.79463318e-04 0.00000000e+00 5.11217586e-05 -5.83565445e-04 0.00000000e+00 7.69500257e-05 -5.85094327e-04 0.00000000e+00 1.02784747e-04 -5.80085965e-04 0.00000000e+00 -1.30149070e-04 -6.06853166e-04 0.00000000e+00 -1.03894250e-04 -6.06550544e-04 0.00000000e+00 -1.52191930e-07 -5.92690834e-04 0.00000000e+00 -7.78478643e-05 -6.11644529e-04 0.00000000e+00 -5.17685330e-05 -6.06142683e-04 0.00000000e+00 -2.59301523e-05 -6.06042042e-04 0.00000000e+00 1.29990323e-04 -6.06920163e-04 0.00000000e+00 2.56173753e-05 -6.06054789e-04 0.00000000e+00 5.14547792e-05 -6.06168003e-04 0.00000000e+00 7.74200307e-05 -6.06351357e-04 0.00000000e+00 1.03577106e-04 -6.06602291e-04 0.00000000e+00 -1.31007459e-04 -6.33500225e-04 0.00000000e+00 -1.04595019e-04 -6.33242424e-04 0.00000000e+00 -1.60180605e-07 -6.19378407e-04 0.00000000e+00 -7.83626019e-05 -6.38402707e-04 0.00000000e+00 -5.21266229e-05 -6.32893993e-04 0.00000000e+00 -2.61136120e-05 -6.32808544e-04 0.00000000e+00 2.57851007e-05 -6.32821699e-04 0.00000000e+00 1.30840330e-04 -6.33568212e-04 0.00000000e+00 1.04261300e-04 -6.33295451e-04 0.00000000e+00 5.17970839e-05 -6.32920186e-04 0.00000000e+00 7.79347902e-05 -6.33078744e-04 0.00000000e+00 -7.87171011e-05 -6.59914571e-04 0.00000000e+00 -1.31733148e-04 -6.60297228e-04 0.00000000e+00 -1.05189109e-04 -6.60083781e-04 0.00000000e+00 -1.68162416e-07 -6.46227389e-04 0.00000000e+00 -5.24317002e-05 -6.59793848e-04 0.00000000e+00 -2.62706926e-05 -6.59723359e-04 0.00000000e+00 2.59260032e-05 -6.59736979e-04 0.0000