<?xml version="1.0"?>
<VTKFile type="UnstructuredGrid"  byte_order="LittleEndian">
<UnstructuredGrid>
<Piece NumberOfPoints="3274" NumberOfCells=" 16609">
<Points>
<DataArray type="Float32" NumberOfComponents="3" format="ascii">
0.500000 0.000000 -0.000000 0.000000 0.500000 0.000000 -0.500000 0.000000 0.000000 -0.000000 -0.500000 -0.000000 0.500000 0.000000 20.000000 0.000000 0.500000 20.000000 -0.500000 0.000000 20.000000 -0.000000 -0.500000 20.000000 0.461940 0.191342 0.000000 0.353553 0.353553 0.000000 0.191342 0.461940 0.000000 -0.191342 0.461940 0.000000 -0.353553 0.353553 0.000000 -0.461940 0.191342 0.000000 -0.461940 -0.191342 -0.000000 -0.353553 -0.353553 -0.000000 -0.191342 -0.461940 -0.000000 0.191342 -0.461940 -0.000000 0.353553 -0.353553 -0.000000 0.461940 -0.191342 -0.000000 0.461940 0.191342 20.000000 0.353553 0.353553 20.000000 0.191342 0.461940 20.000000 -0.191342 0.461940 20.000000 -0.353553 0.353553 20.000000 -0.461940 0.191342 20.000000 -0.461940 -0.191342 20.000000 -0.353553 -0.353553 20.000000 -0.191342 -0.461940 20.000000 0.191342 -0.461940 20.000000 0.353553 -0.353553 20.000000 0.461940 -0.191342 20.000000 0.500000 -0.000003 0.200000 0.500000 -0.000013 0.400000 0.500000 -0.000030 0.600000 0.500000 -0.000054 0.800000 0.500000 -0.000082 1.000000 0.500000 -0.000115 1.200000 0.500000 -0.000153 1.400000 0.500000 -0.000194 1.600000 0.500000 -0.000241 1.800000 0.500000 -0.000290 2.000000 0.500000 -0.000343 2.200000 0.500000 -0.000398 2.400000 0.500000 -0.000457 2.600000 0.500000 -0.000517 2.800000 0.500000 -0.000580 3.000000 0.499999 -0.000644 3.200000 0.499999 -0.000709 3.400000 0.499999 -0.000776 3.600000 0.499999 -0.000843 3.800000 0.499999 -0.000911 4.000000 0.499999 -0.000979 4.200000 0.499999 -0.001047 4.400000 0.499999 -0.001115 4.600000 0.499999 -0.001182 4.800000 0.499999 -0.001249 5.000000 0.499999 -0.001314 5.200000 0.499999 -0.001379 5.400000 0.499999 -0.001443 5.600000 0.499999 -0.001505 5.800000 0.499999 -0.001565 6.000000 0.499999 -0.001623 6.200000 0.499999 -0.001679 6.400000 0.499998 -0.001734 6.600000 0.499998 -0.001786 6.800000 0.499998 -0.001835 7.000000 0.499998 -0.001882 7.200000 0.499998 -0.001927 7.400000 0.499998 -0.001968 7.600000 0.499998 -0.002006 7.800001 0.499997 -0.002042 8.000001 0.499998 -0.002074 8.200001 0.499997 -0.002103 8.400001 0.499997 -0.002129 8.600000 0.499997 -0.002152 8.800000 0.499997 -0.002171 9.000000 0.499997 -0.002187 9.200001 0.499997 -0.002199 9.400001 0.499996 -0.002208 9.600001 0.499996 -0.002214 9.800000 0.499996 -0.002215 10.000001 0.499996 -0.002213 10.200001 0.499996 -0.002208 10.400000 0.499996 -0.002199 10.599999 0.499995 -0.002187 10.800000 0.499996 -0.002171 11.000000 0.499996 -0.002152 11.200000 0.499996 -0.002129 11.400000 0.499996 -0.002104 11.600000 0.499996 -0.002075 11.800000 0.499996 -0.002042 12.000000 0.499996 -0.002007 12.200000 0.499996 -0.001969 12.400000 0.499996 -0.001928 12.599999 0.499996 -0.001883 12.799999 0.499996 -0.001837 13.000000 0.499996 -0.001787 13.200000 0.499997 -0.001736 13.400000 0.499997 -0.001682 13.599999 0.499997 -0.001625 13.800000 0.499997 -0.001567 14.000000 0.499997 -0.001507 14.200000 0.499997 -0.001445 14.400000 0.499997 -0.001382 14.599999 0.499997 -0.001317 14.799999 0.499997 -0.001252 15.000000 0.499998 -0.001185 15.200000 0.499998 -0.001118 15.400000 0.499998 -0.001050 15.599999 0.499998 -0.000982 15.800000 0.499998 -0.000914 16.000000 0.499998 -0.000846 16.199999 0.499998 -0.000779 16.400000 0.499998 -0.000712 16.600000 0.499998 -0.000647 16.799999 0.499998 -0.000582 17.000000 0.499999 -0.000520 17.199999 0.499999 -0.000459 17.400000 0.499999 -0.000401 17.600000 0.499999 -0.000345 17.799999 0.499999 -0.000292 18.000000 0.499999 -0.000243 18.199999 0.499999 -0.000197 18.400000 0.499999 -0.000154 18.600000 0.500000 -0.000116 18.799999 0.500000 -0.000082 19.000000 0.500000 -0.000054 19.200001 0.500000 -0.000031 19.400000 0.500000 -0.000013 19.600000 0.500000 -0.000003 19.799999 -0.000000 0.499990 0.200016 0.000000 0.499979 0.400031 0.000001 0.499962 0.600047 0.000000 0.499938 0.800060 0.000000 0.499911 1.000074 -0.000000 0.499878 1.200085 -0.000000 0.499841 1.400094 -0.000001 0.499799 1.600106 0.000000 0.499754 1.800115 -0.000000 0.499705 2.000124 -0.000000 0.499652 2.200131 -0.000001 0.499597 2.400139 -0.000000 0.499540 2.600144 -0.000000 0.499480 2.800150 -0.000001 0.499418 3.000154 -0.000001 0.499354 3.200158 -0.000001 0.499289 3.400162 -0.000001 0.499223 3.600164 -0.000001 0.499156 3.800166 -0.000001 0.499089 4.000167 -0.000001 0.499021 4.200167 -0.000001 0.498953 4.400167 -0.000001 0.498886 4.600166 -0.000001 0.498819 4.800165 -0.000001 0.498752 5.000163 -0.000001 0.498687 5.200161 -0.000001 0.498622 5.400157 -0.000002 0.498559 5.600154 -0.000002 0.498498 5.800150 -0.000002 0.498438 6.000146 -0.000002 0.498379 6.200141 -0.000002 0.498324 6.400136 -0.000001 0.498270 6.600131 -0.000002 0.498218 6.800126 -0.000002 0.498169 7.000119 -0.000002 0.498122 7.200112 -0.000002 0.498077 7.400105 -0.000002 0.498036 7.600098 -0.000002 0.497998 7.800091 -0.000003 0.497963 8.000084 -0.000003 0.497931 8.200076 -0.000003 0.497902 8.400067 -0.000003 0.497876 8.600060 -0.000003 0.497853 8.800052 -0.000003 0.497834 9.000045 -0.000003 0.497818 9.200034 -0.000003 0.497806 9.400025 -0.000004 0.497797 9.600018 -0.000004 0.497791 9.800009 -0.000003 0.497791 10.000000 -0.000004 0.497792 10.199991 -0.000004 0.497797 10.399982 -0.000005 0.497805 10.599974 -0.000005 0.497818 10.799966 -0.000005 0.497834 10.999957 -0.000004 0.497853 11.199949 -0.000005 0.497875 11.399940 -0.000005 0.497901 11.599933 -0.000004 0.497930 11.799924 -0.000005 0.497962 11.999916 -0.000004 0.497997 12.199909 -0.000004 0.498036 12.399902 -0.000005 0.498077 12.599895 -0.000004 0.498120 12.799888 -0.000004 0.498167 12.999882 -0.000004 0.498216 13.199875 -0.000003 0.498268 13.399870 -0.000003 0.498322 13.599864 -0.000003 0.498377 13.799858 -0.000003 0.498436 13.999854 -0.000003 0.498495 14.199849 -0.000003 0.498557 14.399846 -0.000003 0.498620 14.599842 -0.000003 0.498684 14.799839 -0.000002 0.498749 14.999837 -0.000002 0.498816 15.199835 -0.000002 0.498883 15.399834 -0.000002 0.498950 15.599833 -0.000002 0.499018 15.799833 -0.000002 0.499086 15.999833 -0.000002 0.499153 16.199835 -0.000002 0.499220 16.399836 -0.000002 0.499286 16.599838 -0.000002 0.499351 16.799841 -0.000002 0.499415 16.999846 -0.000001 0.499477 17.199850 -0.000001 0.499538 17.399855 -0.000001 0.499595 17.599861 -0.000001 0.499650 17.799870 -0.000001 0.499703 17.999876 -0.000001 0.499752 18.199884 -0.000000 0.499798 18.399895 -0.000000 0.499839 18.599903 -0.000001 0.499877 18.799913 -0.000000 0.499910 18.999928 0.000000 0.499939 19.199940 0.000000 0.499962 19.399954 -0.000000 0.499979 19.599968 0.000000 0.499991 19.799984 -0.500000 -0.000003 0.200000 -0.500000 -0.000014 0.400000 -0.500000 -0.000031 0.600001 -0.499999 -0.000055 0.800001 -0.500000 -0.000082 1.000000 -0.500000 -0.000115 1.200000 -0.500000 -0.000152 1.400000 -0.500000 -0.000195 1.600000 -0.500000 -0.000241 1.800000 -0.500000 -0.000290 2.000000 -0.500000 -0.000343 2.200000 -0.500000 -0.000399 2.400000 -0.500000 -0.000457 2.600000 -0.500000 -0.000517 2.800000 -0.500000 -0.000580 3.000000 -0.500000 -0.000644 3.200000 -0.500000 -0.000709 3.400000 -0.500001 -0.000776 3.600000 -0.500001 -0.000843 3.800000 -0.500001 -0.000911 4.000000 -0.500001 -0.000979 4.200000 -0.500001 -0.001047 4.400000 -0.500001 -0.001115 4.600000 -0.500001 -0.001183 4.800000 -0.500001 -0.001249 5.000000 -0.500001 -0.001315 5.200000 -0.500001 -0.001380 5.400000 -0.500001 -0.001443 5.600000 -0.500001 -0.001505 5.800000 -0.500001 -0.001565 6.000000 -0.500002 -0.001623 6.200000 -0.500001 -0.001680 6.400000 -0.500002 -0.001734 6.600000 -0.500002 -0.001786 6.800000 -0.500002 -0.001835 7.000000 -0.500002 -0.001882 7.200000 -0.500002 -0.001927 7.400000 -0.500002 -0.001968 7.600000 -0.500002 -0.002007 7.800000 -0.500002 -0.002042 8.000000 -0.500003 -0.002074 8.200000 -0.500003 -0.002104 8.400000 -0.500003 -0.002129 8.599999 -0.500003 -0.002152 8.799999 -0.500003 -0.002171 9.000000 -0.500003 -0.002187 9.200000 -0.500003 -0.002200 9.400000 -0.500003 -0.002208 9.600000 -0.500004 -0.002214 9.800000 -0.500004 -0.002216 9.999999 -0.500004 -0.002214 10.199999 -0.500004 -0.002208 10.400000 -0.500004 -0.002199 10.600000 -0.500004 -0.002187 10.800000 -0.500004 -0.002171 11.000000 -0.500004 -0.002152 11.200000 -0.500005 -0.002130 11.400000 -0.500004 -0.002104 11.599999 -0.500004 -0.002075 11.800000 -0.500004 -0.002043 12.000000 -0.500004 -0.002008 12.200000 -0.500004 -0.001969 12.400001 -0.500004 -0.001928 12.600000 -0.500004 -0.001884 12.800000 -0.500004 -0.001837 13.000000 -0.500004 -0.001788 13.200000 -0.500003 -0.001736 13.400001 -0.500003 -0.001682 13.600000 -0.500003 -0.001625 13.800000 -0.500003 -0.001567 14.000000 -0.500003 -0.001507 14.200000 -0.500003 -0.001445 14.400001 -0.500003 -0.001382 14.600000 -0.500003 -0.001317 14.800000 -0.500003 -0.001252 15.000000 -0.500002 -0.001185 15.200000 -0.500002 -0.001118 15.400001 -0.500002 -0.001050 15.600000 -0.500002 -0.000982 15.800000 -0.500002 -0.000914 16.000000 -0.500002 -0.000846 16.200001 -0.500002 -0.000778 16.400000 -0.500002 -0.000712 16.600000 -0.500002 -0.000646 16.800001 -0.500002 -0.000582 17.000000 -0.500001 -0.000520 17.200001 -0.500001 -0.000459 17.400000 -0.500001 -0.000401 17.600000 -0.500001 -0.000345 17.800001 -0.500001 -0.000292 18.000000 -0.500001 -0.000242 18.200001 -0.500000 -0.000196 18.400000 -0.500001 -0.000154 18.600000 -0.500000 -0.000116 18.800001 -0.500000 -0.000082 19.000000 -0.500001 -0.000054 19.200001 -0.500000 -0.000030 19.400000 -0.500000 -0.000013 19.600000 -0.500000 -0.000003 19.799999 -0.000000 -0.500010 0.199984 -0.000000 -0.500023 0.399967 0.000000 -0.500037 0.599954 0.000001 -0.500061 0.799942 0.000000 -0.500091 0.999928 0.000000 -0.500121 1.199916 0.000001 -0.500160 1.399906 0.000000 -0.500201 1.599894 0.000001 -0.500246 1.799885 0.000000 -0.500296 1.999876 0.000000 -0.500
[...]
<PointData>
<DataArray type="Float32" Name="Displacement" NumberOfComponents="3" format="ascii">
 8.61064404e-27
 2.42957126e-26
 -6.49804449e-27
 9.74847286e-28
 -1.91114743e-25
 2.79204572e-25
 7.18882934e-27
 2.55529180e-26
 6.61153338e-27
 -3.36858744e-27
 -1.84499725e-25
 -2.81236777e-25
 5.07370490e-27
 2.87282311e-26
 -7.71901744e-28
 3.66389606e-27
 -1.90837631e-25
 -2.90582017e-25
 9.81151298e-27
 2.75345274e-26
 -1.33695622e-26
 -3.11581395e-27
 -1.81685365e-25
 2.89176711e-25
 -3.76808933e-26
 -2.20943361e-26
 9.56080435e-26
 -1.20000177e-25
 -7.54074235e-26
 2.43067175e-25
 -4.11599117e-26
 -1.15009313e-25
 3.47612988e-25
 3.80150345e-26
 -9.78791186e-26
 2.33060893e-25
 1.16759672e-25
 -8.04606446e-26
 2.52287233e-25
 4.37170721e-26
 -2.80290230e-26
 1.45184488e-25
 -3.87447216e-26
 -2.20534047e-26
 -9.74698785e-26
 -1.22447236e-25
 -7.50037239e-26
 -2.45969271e-25
 -4.26582266e-26
 -1.16356490e-25
 -3.51850896e-25
 -4.42311104e-22
 1.32821417e-21
 2.39812786e-21
 1.07458189e-25
 -5.34219070e-26
 -2.29056192e-25
 4.18874109e-26
 -2.62682639e-26
 -1.27763210e-25
 -4.01847532e-26
 -2.33433017e-26
 -1.03494323e-25
 -1.23789360e-25
 -7.98774052e-26
 -2.52481663e-25
 -4.17181386e-26
 -1.15931381e-25
 -3.54591473e-25
 3.89829052e-26
 -9.69920260e-26
 -2.39686487e-25
 2.58757837e-22
 -6.75102770e-22
 -1.13772231e-21
 4.33173014e-26
 -2.12723754e-26
 -1.35957601e-25
 -3.95121784e-26
 -2.01549339e-26
 1.02264366e-25
 -1.22526467e-25
 -7.53242171e-26
 2.50412209e-25
 -4.32939468e-26
 -1.14409471e-25
 3.52390798e-25
 3.77840153e-26
 -1.02864689e-25
 2.77276498e-25
 1.08856531e-25
 -6.23532053e-26
 2.33753365e-25
 4.47610833e-26
 -2.83644584e-26
 1.45370228e-25
 -3.48934464e-08
 -3.38078326e-06
 -1.06769406e-07
 -2.34102049e-06
 -9.06756850e-06
 8.06325625e-06
 -1.57014824e-07
 -3.04757468e-05
 -1.94538345e-07
 2.80242489e-07
 -8.16031825e-05
 3.49440455e-07
 2.81256234e-07
 -8.16311585e-05
 3.37231853e-07
 -4.82502323e-08
 -1.15017094e-04
 1.33491454e-07
 -4.78747317e-08
 -1.15073890e-04
 1.25667000e-07
 6.60550654e-08
 -1.42101751e-04
 -2.85615351e-06
 8.18580304e-07
 -2.34656880e-04
 -2.14334432e-05
 -1.02481499e-06
 -2.89388117e-04
 3.96389114e-05
 -4.38776091e-08
 -3.42769054e-04
 -3.99468369e-08
 -1.84274541e-07
 -4.56405629e-04
 2.33037326e-07
 -2.74842535e-07
 -5.16719301e-04
 1.40530560e-07
 -2.27059502e-07
 -4.97703324e-04
 -4.61850232e-06
 -4.45822025e-07
 -5.79631305e-04
 2.01913252e-07
 -4.45754040e-07
 -5.79673855e-04
 1.94608418e-07
 -5.51799985e-07
 -7.75389257e-04
 3.69092589e-07
 -5.50134303e-07
 -7.75786233e-04
 2.04411805e-07
 -5.50494804e-07
 -7.75619119e-04
 2.87913139e-07
 -6.65429184e-07
 -8.43569695e-04
 4.53541986e-07
 -8.27386884e-07
 -9.78804193e-04
 -1.75694737e-07
 -8.87525232e-07
 -1.04563311e-03
 1.44054326e-07
 -9.57028305e-07
 -1.11479010e-03
 4.91198875e-07
 -1.00756336e-06
 -1.17517007e-03
 9.97150710e-06
 -1.22561755e-06
 -1.31515181e-03
 2.55337000e-07
 -1.48057666e-06
 -1.33495266e-03
 -2.21707869e-05
 -1.26358032e-06
 -1.35367888e-03
 1.37509602e-07
 -1.48259210e-06
 -1.49277586e-03
 -5.69796657e-06
 -1.48265303e-06
 -1.49274652e-03
 -5.70193788e-06
 -1.44415117e-06
 -1.57674099e-03
 -1.37008044e-06
 -1.46883178e-06
 -1.62262807e-03
 3.76885197e-07
 -2.03916670e-06
 -1.64505641e-03
 -2.65259168e-05
 -1.73645321e-06
 -1.78504374e-03
 1.60035526e-07
 -1.73588330e-06
 -1.78471510e-03
 1.52286731e-07
 -1.79856625e-06
 -1.83520780e-03
 5.15349825e-07
 -7.82017935e-07
 -1.87719229e-03
 3.35327786e-05
 -2.00364479e-06
 -1.92593492e-03
 2.38963651e-07
 -1.97521877e-06
 -1.96775841e-03
 7.57393295e-08
 -2.09529526e-06
 -2.00652424e-03
 3.50812371e-07
 -2.09818177e-06
 -2.00650981e-03
 2.97137660e-07
 -2.31010699e-06
 -2.07380159e-03
 7.12867461e-07
 -2.67119367e-06
 -2.10304302e-03
 5.80205437e-07
 -2.71797535e-06
 -2.14168942e-03
 3.61101598e-07
 -2.75301704e-06
 -2.12943670e-03
 2.93803708e-07
 -2.93310131e-06
 -2.17087427e-03
 5.21152366e-08
 -4.18697073e-06
 -2.17089290e-03
 -9.94327638e-06
 -3.73790090e-06
 -2.20834347e-03
 9.20433649e-07
 -4.16303828e-06
 -2.20120372e-03
 -8.57590840e-06
 -3.69590111e-06
 -2.21357564e-03
 2.81138398e-07
 -3.92739639e-06
 -2.21511908e-03
 6.72546548e-07
 -4.11475867e-06
 -2.21304805e-03
 4.16462854e-07
 -2.89339823e-06
 -2.21080612e-03
 -3.40649262e-06
 -3.61082971e-06
 -2.20238138e-03
 -7.93200888e-06
 -4.37820381e-06
 -2.17142561e-03
 2.24419381e-08
 -4.40427675e-06
 -2.17132247e-03
 2.61297373e-07
 -4.43614454e-06
 -2.12982483e-03
 6.75535077e-08
 -4.43775298e-06
 -2.12980248e-03
 6.65070274e-08
 -4.43001682e-06
 -2.10421300e-03
 6.62270594e-08
 -3.71917099e-06
 -2.04512710e-03
 -1.88254780e-05
 -5.37728783e-06
 -2.05646548e-03
 2.18720452e-05
 -4.16596185e-06
 -2.00694287e-03
 -8.23384312e-07
 -4.17077672e-06
 -2.00682878e-03
 -6.19188313e-07
 -5.00155602e-06
 -1.87844306e-03
 3.29883806e-05
 -3.42988255e-06
 -1.84516388e-03
 -1.30115704e-05
 -3.81757172e-06
 -1.83671620e-03
 -4.82312828e-07
 -3.56319788e-06
 -1.78611570e-03
 -2.11390599e-07
 -3.44908813e-06
 -1.73558865e-03
 2.22744561e-07
 -3.30036073e-06
 -1.68158289e-03
 -8.03134185e-07
 -3.11314807e-06
 -1.56825024e-03
 -2.57729596e-07
 -3.13066630e-06
 -1.58120890e-03
 -6.85773927e-08
 -2.91693846e-06
 -1.44614303e-03
 -2.48732590e-07
 -2.91706215e-06
 -1.44624140e-03
 -2.48620410e-07
 -2.83026384e-06
 -1.38189888e-03
 -2.50295642e-07
 -2.43107797e-06
 -1.28782948e-03
 -1.99815968e-05
 -2.15016189e-06
 -1.30771438e-03
 -5.08219018e-05
 -2.44500347e-06
 -1.18473056e-03
 -2.48475430e-07
 -2.39148176e-06
 -1.11788826e-03
 -5.67502354e-07
 -2.18161676e-06
 -9.83010978e-04
 -3.38951793e-07
 -2.18022137e-06
 -9.81942867e-04
 1.11949348e-07
 -2.06301934e-06
 -9.13901487e-04
 9.40801215e-08
 -1.84239207e-06
 -7.86811812e-04
 2.25722852e-05
 -1.95724169e-06
 -7.78963382e-04
 -1.31484498e-07
 -1.95647362e-06
 -7.78411515e-04
 -1.77840491e-07
 -1.62946014e-06
 -5.82733948e-04
 -3.34852672e-07
 -1.62937931e-06
 -5.82668115e-04
 -3.37985313e-07
 -1.41899648e-06
 -5.19528869e-04
 -2.70744891e-07
 -1.37089182e-06
 -5.00273483e-04
 4.55915142e-06
 -1.32056448e-06
 -4.01172787e-04
 -2.69556779e-07
 -1.03439834e-06
 -3.45205422e-04
 -1.10973538e-07
 -2.29712145e-06
 -2.57831998e-04
 -3.62080937e-05
 -1.94785775e-06
 -2.13697189e-04
 -2.61427649e-05
 -9.95175697e-07
 -2.32309976e-04
 -2.06775130e-05
 -2.30353362e-06
 -1.24532569e-04
 -2.53877952e-05
 -2.49739344e-07
 -1.07883927e-04
 4.49085803e-07
 -1.35865633e-07
 -8.22690999e-05
 -9.24161654e-08
 -3.53849799e-07
 -3.67780121e-05
 -5.13940813e-06
 6.14805842e-08
 -3.07872033e-05
 3.78212661e-09
 5.48059109e-09
 -1.34792726e-05
 -1.25031079e-07
 1.98335480e-11
 -1.92272621e-11
 4.64697447e-11
 -2.09916891e-07
 -9.73723218e-06
 1.56972947e-05
 1.18970370e-07
 -2.12174746e-05
 3.05840331e-05
 7.03858916e-07
 -3.83720253e-05
 4.72251850e-05
 3.15723383e-07
 -6.22952211e-05
 6.00066996e-05
 1.51207033e-07
 -8.93622637e-05
 7.39708994e-05
 -2.48320930e-07
 -1.21878489e-04
 8.52116937e-05
 -4.76525656e-07
 -1.59347430e-04
 9.41341059e-05
 -5.96362611e-07
 -2.00716313e-04
 1.05715597e-04
 4.81953286e-08
 -2.45830248e-04
 1.15368144e-04
 -4.22563431e-07
 -2.95284961e-04
 1.23558231e-04
 -7.81896077e-08
 -3.47747700e-04
 1.30841145e-04
 -5.06132892e-07
 -4.02794481e-04
 1.38498566e-04
 -3.77045126e-07
 -4.60090785e-04
 1.44373960e-04
 -4.43606353e-07
 -5.20279282e-04
 1.49772561e-04
 -7.92340245e-07
 -5.82323992e-04
 1.54081688e-04
 -6.73630382e-07
 -6.45994267e-04
 1.57957387e-04
 -7.73079762e-07
 -7.10951746e-04
 1.61326316e-04
 -7.71937039e-07
 -7.77097535e-04
 1.63690202e-04
 -9.07176002e-07
 -8.43996590e-04
 1.65333418e-04
 -9.51479535e-07
 -9.11433657e-04
 1.66475773e-04
 -1.02866659e-06
 -9.79140168e-04
 1.66826663e-04
 -1.07229630e-06
 -1.04687107e-03
 1.66653947e-04
 -1.21533833e-06
 -1.11426786e-03
 1.65834732e-04
 -1.20891127e-06
 -1.18144555e-03
 1.64575307e-04
 -1.30141098e-06
 -1.24790543e-03
 1.62705837e-04
 -1.38517441e-06
 -1.31338229e-03
 1.60252224e-04
 -1.49633718e-06
 -1.37767254e-03
 1.57168877e-04
 -1.54763188e-06
 -1.44078478e-03
 1.53665620e-04
 -1.64329538e-06
 -1.50216650e-03
 1.50061838e-04
 -1.59969636e-06
 -1.56240165e-03
 1.45632963e-04
 -1.65211657e-06
 -1.62056938e-03
 1.40456017e-04
 -1.71690078e-06
 -1.67629344e-03
 1.35795810e-04
 -1.46721266e-06
 -1.73050188e-03
 1.30810440e-04
 -1.79969311e-06
 -1.78213615e-03
 1.25170394e-04
 -1.88319621e-06
 -1.83149637e-03
 1.18567579e-04
 -2.06727350e-06
 -1.87809719e-03
 1.11990114e-04
 -2.11029624e-06
 -1.92273699e-03
 1.05064253e-04
 -2.18518881e-06
 -1.96392904e-03
 9.76356750e-05
 -2.29543525e-06
 -2.00207485e-03
 9.04099579e-05
 -2.65101494e-06
 -2.03737570e-03
 8.31760190e-05
 -2.63467723e-06
 -2.06890004e-03
 7.56559093e-05
 -2.85628175e-06
 -2.09822087e-03
 6.75122646e-05
 -3.21514494e-06
 -2.12426460e-03
 5.98963379e-05
 -2.91846140e-06
 -2.14719959e-03
 5.18683228e-05
 -2.74381819e-06
 -2.16625677e-03
 4.41999546e-05
 -2.95847985e-06
 -2.18212442e-03
 3.40292790e-05
 -3.14173326e-06
 -2.19433079e-03
 2.56563271e-05
 -3.83299312e-06
 -2.20254855e-03
 1.78040827e-05
 -3.78041750e-06
 -2.20910297e-03
 8.45428713e-06
 -3.43008924e-06
 -2.20949692e-03
 4.06500590e-07
 -4.40709073e-06
 -2.20826687e-03
 -8.82504719e-06
 -4.42546025e-06
 -2.20304029e-03
 -1.72082491e-05
 -4.63695233e-06
 -2.19461089e-03
 -2.64592145e-05
 -4.74757644e-06
 -2.18226085e-03
 -3.40696388e-05
 -4.88219302e-06
 -2.16643792e-03
 -4.30701803e-05
 -4.47264756e-06
 -2.14721519e-03
 -5.06297656e-05
 -4.69222505e-06
 -2.12520012e-03
 -5.95606143e-05
 -4.72508918e-06
 -2.09893868e-03
 -6.73385075e-05
 -4.23172060e-06
 -2.07009329e-03
 -7.57099624e-05
 -4.52698259e-06
 -2.03848490e-03
 -8.32976148e-05
 -4.47517505e-06
 -2.00288859e-03
 -9.06634159e-05
 -4.08231563e-06
 -1.96445058e-03
 -9.77418022e-05
 -4.55690451e-06
 -1.92349788e-03
 -1.05421881e-04
 -4.20599736e-06
 -1.87980232e-03
 -1.11815061e-04
 -3.77047172e-06
 -1.83327403e-03
 -1.17705036e-04
 -3.64340576e-06
 -1.78400695e-03
 -1.24360682e-04
 -3.42782164e-06
 -1.73235475e-03
 -1.29686072e-04
 -3.28281794e-06
 -1.67826831e-03
 -1.35374430e-04
 -3.19382593e-06
 -1.62298616e-03
 -1.41056473e-04
 -3.19403580e-06
 -1.56443613e-03
 -1.45467377e-04
 -3.01057639e-06
 -1.50481088e-03
 -1.49978252e-04
 -2.93689254e-06
 -1.44318177e-03
 -1.53221161e-04
 -2.84908697e-06
 -1.38027733e-03
 -1.57066272e-04
 -2.65447420e-06
 -1.31609314e-03
 -1.60146461e-04
 -2.49985260e-06
 -1.25059951e-03
 -1.62582714e-04
 -2.39067163e-06
 -1.18423125e-03
 -1.64475336e-04
 -2.37526547e-06
 -1.11710769e-03
 -1.65767240e-04
 -2.19491585e-06
 -1.04973931e-03
 -1.66618134e-04
 -2.11684960e-06
 -9.82000260e-04
 -1.66838887e-04
 -1.99903525e-06
 -9.14302538e-04
 -1.66505502e-04
 -1.88462207e-06
 -8.46870942e-04
 -1.65412624e-04
 -1.76791502e-06
 -7.79888127e-04
 -1.63886929e-04
 -1.66401310e-06
 -7.13692163e-04
 -1.61472868e-04
 -1.56509418e-06
 -6.48651796e-04
 -1.58164767e-04
 -1.63840957e-06
 -5.84899564e-04
 -1.54352092e-04
 -1.24393785e-06
 -5.22743736e-04
 -1.50088264e-04
 -1.11961651e-06
 -4.62426746e-04
 -1.44739126e-04
 -1.19072638e-06
 -4.04973223e-04
 -1.38902280e-04
 -7.13882628e-07
 -3.49747104e-04
 -1.31272609e-04
 -1.03294087e-06
 -2.97085353e-04
 -1.23964273e-04
 -5.38974064e-07
 -2.47529853e-04
 -1.15765855e-04
 -2.91968576e-07
 -2.01874864e-04
 -1.06156665e-04
 -2.11045631e-07
 -1.60913027e-04
 -9.66992302e-05
 -6.62052344e-07
 -1.23076330e-04
 -8.64529138e-05
 -3.58914747e-08
 -8.99914230e-05
 -7.21002798e-05
 1.32152650e-07
 -6.10597708e-05
 -6.09326707e-05
 1.43551731e-07
 -3.81428290e-05
 -4.68456747e-05
 -3.71276116e-07
 -2.12701780e-05
 -3.23990171e-05
 1.15751027e-08
 -9.21237097e-06
 -1.59851679e-05
 9.61094572e-12
 -5.62745753e-11
 2.59360346e-11
 -2.64239134e-06
 -9.04585522e-06
 -8.36509662e-06
 -3.00090107e-07
 -3.05282956e-05
 7.19576235e-07
 -2.98851319e-07
 -3.05353205e-05
 7.30083570e-07
 6.00174985e-07
 -9.76067022e-05
 7.99451573e-06
 5.99996213e-07
 -9.76095471e-05
 7.99154168e-06
 1.64253333e-06
 -1.81751297e-04
 2.80031836e-05
 1.64185349e-06
 -1.81757772e-04
 2.79926080e-05
 6.65317188e-08
 -2.40926995e-04
 -3.30105195e-07
 1.47113576e-06
 -2.56632949e-04
 3.55686716e-05
 1.12339433e-06
 -3.75088101e-04
 4.67751961e-05
 -2.49813183e-07
 -3.99066281e-04
 7.29017202e-08
 -1.82600260e-07
 -4.57341841e-04
 -2.43702004e-07
 -1.82753311e-07
 -4.57354006e-04
 -2.50572612e-07
 -1.02934145e-07
 -4.99135873e-04
 9.97688585e-06
 1.60247737e-07
 -6.29416143e-04
 4.75973502e-05
 -4.79882715e-07
 -7.09156797e-04
 -3.51823189e-07
 -6.67380618e-07
 -8.42957583e-04
 -2.65335871e-07
 -5.99488658e-07
 -7.76479370e-04
 -2.17607365e-07
 -6.65903997e-07
 -8.43443617e-04
 2.67609664e-07
 -8.29963028e-07
 -9.79220495e-04
 -5.21978109e-07
 -8.75378930e-07
 -1.04652671e-03
 4.76042658e-07
 -9.42198994e-07
 -1.11507811e-03
 -5.80742835e-07
 -1.18952289e-06
 -1.14312605e-03
 3.98072625e-05
 -9.90340936e-07
 -1.33438059e-03
 -2.31969570e-05
 -1.16843955e-06
 -1.31500582e-03
 -7.93637753e-07
 -1.33699041e-06
 -1.37916475e-03
 -6.58452905e-07
 -1.47048854e-06
 -1.50429620e-03
 -1.22296171e-07
 -1.28916508e-06
 -1.44382846e-03
 -1.97788069e-07
 -1.43920693e-06
 -1.56609935e-03
 -1.55220818e-07
 -1.53208941e-06
 -1.62321411e-03
 -3.44275747e-07
 -1.69073337e-06
 -1.66163105e-03
 9.55650012e-06
 -1.76835101e-06
 -1.78477017e-03
 -4.17234617e-07
 -1.47964761e-06
 -1.74229860e-03
 -9.32339208e-06
 -2.54130987e-06
 -1.80631643e-03
 2.72849775e-05
 -1.77466859e-06
 -1.83633214e-03
 -1.42784842e-07
 -2.48774154e-06
 -1.89842354e-03
 1.38013293e-05
 -2.89046761e-06
 -1.94032106e-03
 2.00616760e-05
 -2.34723007e-06
 -2.00618454e-03
 -3.25945450e-07
 -2.15733326e-06
 -2.04204861e-03
 -6.38492509e-07
 -2.80584391e-06
 -2.07681139e-03
 6.21575873e-06
 -2.48073616e-06
 -2.07462884e-03
 -3.63228565e-07
 -2.52001701e-06
 -2.12949351e-03
 -6.44998124e-07
 -3.11560143e-06
 -2.13325676e-03
 9.15255623e-06
 -2.88509682e-06
 -2.17133667e-03
 -5.29440626e-07
 -2.54672227e-06
 -2.17910670e-03
 -7.25989548e-06
 -3.16394880e-06
 -2.18741107e-03
 -2.70570098e-07
 -4.84536531e-06
 -2.20962660e-03
 3.50524442e-06
 -3.92664970e-06
 -2.21030717e-03
 1.72969828e-06
 -3.67884513e-06
 -2.21572584e-03
 -6.53719837e-07
 -4.14721626e-06
 -2.21376820e-03
 -9.26803182e-07
 -4.25286680e-06
 -2.20798049e-03
 -4.10547358e-07
 -4.27337773e-06
 -2.19959300e-03
 2.69504341e-07
 -4.15003979e-06
 -2.18692701e-03
 2.62891319e-07
 -3.37107008e-06
 -2.17122398e-03
 9.83645714e-06
 -5.02003377e-06
 -2.14877957e-03
 -1.18806674e-05
 -3.87899945e-06
 -2.13646097e-03
 7.03534670e-06
 -4.54717519e-06
 -2.07793899e-03
 -6.27641202e-06
 -4.28372505e-06
 -2.07540416e-03
 6.96724385e-08
 -4.15510976e-06
 -2.04254524e-03
 -3.70531922e-07
 -5.05348771e-06
 -1.98187935e-03
 -1.81200849e-05
 -4.94636288e-06
 -1.94139231e-03
 -1.94470049e-05
 -4.07146945e-06
 -1.92854065e-03
 8.15369439e-10
 -3.76802359e-06
 -1.83783658e-03
 -3.19494298e-08
 -3.74775277e-06
 -1.83707371e-03
 5.27512555e-07
 -3.68581459e-06
 -1.78770488e-03
 5.94136566e-07
 -3.69295412e-06
 -1.78637053e-03
 1.79430430e-07
 -3.40796146e-06
 -1.68218231e-03
 2.68407263e-07
 -3.23730956e-06
 -1.62544276e-03
 8.78690571e-07
 -2.99066392e-06
 -1.56722474e-03
 7.98152769e-07
 -3.02011063e-06
 -1.49462267e-03
 -2.89698079e-07
 -3.02015292e-06
 -1.49462663e-03
 -2.89274595e-07
 -3.24464418e-06
 -1.33605173e-03
 -4.69532351e-05
 -2.60503066e-06
 -1.31740398e-03
 7.68028258e-07
 -2.42502324e-06
 -1.18446047e-03
 1.82572094e-07
 -2.55320492e-06
 -1.14600209e-03
 -3.98292214e-05
 -2.35940684e-06
 -1.11766590e-03
 6.09680285e-07
 -2.37814675e-06
 -1.09724363e-03
 -1.81073374e-05
 -2.17903221e-06
 -9.81823076e-04
 5.84441750e-07
 -2.17683100e-06
 -9.81348916e-04
 -1.71455738e-07
 -1.84804276e-06
 -7.78786896e-04
 4.75977458e-07
 -1.99124452e-06
 -8.45539442e-04
 4.30609987e-07
 -1.63901245e-06
 -6.46670989e-04
 3.20102686e-07
 -1.97180270e-06
 -6.64822524e-04
 3.26268273e-05
 -1.21267612e-06
 -5.01485309e-04
 -9.93922004e-06
 -1.27963540e-06
 -4.59322619e-04
 3.31130622e-07
 -1.21215817e-06
 -5.01183327e-04
 -9.93757112e-06
 -1.29404862e-06
 -4.00882098e-04
 1.53056888e-07
 2.24996327e-07
 -3.76886717e-04
 -4.68306098e-05
 2.07261209e-07
 -3.09156108e-04
 -3.42928470e-05
 5.27291490e-07
 -2.57789390e-04
 -3.58141187e-05
 -7.83337953e-07
 -1.53857167e-04
 4.60939646e-07
 -7.84271208e-07
 -1.53803936e-04
 4.69985565e-07
 -3.87888832e-07
 -1.15952636e-04
 5.11893006e-07
 -3.88325986e-07
 -1.15974697e-04
 5.14580620e-07
 -2.11216184e-06
 -5.15370302e-05
 1.38648884e-05
 -1.64525559e-07
 -3.02333174e-05
 4.36806658e-07
 -5.93179095e-07
 -1.41586834e-05
 3.58890952e-06
 2.11139763e-06
 -1.20659615e-06
 -3.87171349e-06
 -6.71441569e-08
 -9.53682957e-06
 -1.61799453e-05
 -1.23266693e-06
 -2.27646578e-05
 -1.34428474e-05
 1.99687042e-06
 -6.34968528e-05
 -5.87206414e-05
 5.27236011e-07
 -6.11947617e-05
 -5.79767911e-05
 2.27376759e-07
 -9.05217239e-05
 -7.21019751e-05
 6.56852592e-07
 -1.59655960e-04
 -9.42178740e-05
 6.57434214e-07
 -1.59709889e-04
 -9.42328043e-05
 3.41788176e-09
 -2.00730938e-04
 -1.05907035e-04
 -1.19786830e-06
 -2.60828529e-04
 -1.12847367e-04
 1.83260966e-06
 -2.60728179e-04
 -1.12030168e-04
 -9.37275768e-09
 -4.02748206e-04
 -1.38277959e-04
 -8.06769318e-09
 -4.02807229e-04
 -1.38258576e-04
 -2.01500015e-07
 -4.40676697e-04
 -9.34029376e-05
 -6.55580322e-07
 -4.96991386e-04
 -9.36828292e-05
 -1.62064467e-07
 -5.82131674e-04
 -1.54716021e-04
 -2.68336038e-07
 -6.45995489e-04
 -1.58391747e-04
 -3.13546110e-07
 -7.10930733e-04
 -1.61416130e-04
 -3.45347900e-07
 -7.77134614e-04
 -1.63966761e-04
 -5.01636578e-07
 -8.43867543e-04
 -1.65680147e-04
 -5.22555297e-07
 -8.30057659e-04
 -8.64086105e-05
 -4.84127213e-07
 -9.36137978e-04
 -1.61850985e-04
 -6.66882841e-07
 -1.00717612e-03
 -1.62853816e-04
 -7.31925240e-07
 -1.11421046e-03
 -1.66264101e-04
 -8.57874511e-07
 -1.18153438e-03
 -1.65009158e-04
 -1.23292307e-06
 -1.23745285e-03
 -6.56129923e-05
 -9.55618475e-07
 -1.31313095e-03
 -1.60550335e-04
 -1.14488000e-06
 -1.37728103e-03
 -1.57695991e-04
 -1.12685109e-06
 -1.44050515e-03
 -1.54329944e-04
 -1.27524095e-06
 -1.50211900e-03
 -1.50488486e-04
 -1.26348095e-06
 -1.56268897e-03
 -1.45971120e-04
 -1.25571694e-06
 -1.60297879e-03
 -8.55588805e-05
 -1.43524449e-06
 -1.67641253e-03
 -1.36441289e-04
 -2.27649684e-06
 -1.68464042e-03
 -1.30574103e-04
 -1.41426983e-06
 -1.78187259e-03
 -1.25009508e-04
 -1.68731776e-06
 -1.83189521e-03
 -1.18934018e-04
 -1.71626925e-06
 -1.91015180e-03
 -6.02423679e-05
 -2.09759924e-06
 -1.92239031e-03
 -1.05411775e-04
 -2.00710770e-06
 -1.96384033e-03
 -9.83076461e-05
 -2.11546740e-06
 -2.00038520e-03
 -3.90198220e-05
 -2.37379322e-06
 -2.05138372e-03
 -3.43620741e-05
 -2.08689858e-06
 -2.06973124e-03
 -7.58345996e-05
 -3.23309678e-06
 -2.11869832e-03
 -2.78688731e-05
 -3.21970333e-06
 -2.11889786e-03
 -2.79996329e-05
 -2.54767906e-06
 -2.14707921e-03
 -5.19358182e-05
 -2.82042038e-06
 -2.16610124e-03
 -4.37244380e-05
 -3.17031731e-06
 -2.19432311e-03
 -2.70589280e-05
 -3.17151444e-06
 -2.19436665e-03
 -2.70769469e-05
 -3.45377612e-06
 -2.20322236e-03
 -1.72878190e-05
 -3.50728010e-06
 -2.20870017e-03
 -8.31174475e-06
 -3.75844684e-06
 -2.20977468e-03
 6.91461196e-07
 -2.30261185e-06
 -2.20937934e-03
 8.93008837e-06
 -4.29677766e-06
 -2.20318791e-03
 1.70556614e-05
 -4.00080899e-06
 -2.19445443e-03
 2.62600879e-05
 -4.78598122e-06
 -2.18184316e-03
 3.42301755e-05
 -4.59032299e-06
 -2.15892144e-03
 1.90902938e-05
 -4.31672152e-06
 -2.13712733e-03
 3.74544870e-05
 -4.15824388e-06
 -2.12474936e-03
 6.01315478e-05
 -4.43833551e-06
 -2.09915661e-03
 6.72033784e-05
 -4.12193413e-06
 -2.07053870e-03
 7.57478047e-05
 -4.06194158e-06
 -2.03778641e-03
 8.28601551e-05
 -4.09085987e-06
 -2.00257823e-03
 9.07345529e-05
 -4.79104256e-06
 -1.93648937e-03
 1.01040117e-04
 -3.79092035e-06
 -1.88000838e-03
 1.11681395e-04
 -3.76986600e-06
 -1.86140451e-03
 6.31677540e-05
 -3.87153568e-06
 -1.83305563e-03
 1.19388846e-04
 -3.66643576e-06
 -1.78403838e-03
 1.24748331e-04