<?xml version="1.0"?>
<VTKFile type="UnstructuredGrid"  byte_order="LittleEndian">
<UnstructuredGrid>
<Piece NumberOfPoints="728" NumberOfCells=" 3753">
<Points>
<DataArray type="Float32" NumberOfComponents="3" format="ascii">
-0.052264 -0.497261 0.000000 -0.052264 -0.497261 0.200000 -0.052264 -0.497261 0.400000 -0.052264 -0.497261 0.600000 -0.052264 -0.497261 0.800000 -0.052264 -0.497261 1.000000 -0.052264 -0.497261 1.200000 -0.052264 -0.497261 1.400000 -0.052264 -0.497261 1.600000 -0.052264 -0.497261 1.800000 -0.052264 -0.497261 2.000000 -0.052264 -0.497261 2.200000 -0.052264 -0.497261 2.400000 -0.052264 -0.497261 2.600000 -0.052264 -0.497261 2.800000 -0.052264 -0.497261 3.000000 -0.052264 -0.497261 3.200000 -0.052264 -0.497261 3.400000 -0.052264 -0.497261 3.600000 -0.052264 -0.497261 3.800000 -0.052264 -0.497261 4.000000 -0.052264 -0.497261 4.200000 -0.052264 -0.497261 4.400000 -0.052264 -0.497261 4.600000 -0.052264 -0.497261 4.800000 -0.052264 -0.497261 5.000000 -0.250000 -0.433013 0.000000 -0.250000 -0.433013 0.200000 -0.250000 -0.433013 0.400000 -0.250000 -0.433013 0.600000 -0.250000 -0.433013 0.800000 -0.250000 -0.433013 1.000000 -0.250000 -0.433013 1.200000 -0.250000 -0.433013 1.400000 -0.250000 -0.433013 1.600000 -0.250000 -0.433013 1.800000 -0.250000 -0.433013 2.000000 -0.250000 -0.433013 2.200000 -0.250000 -0.433013 2.400000 -0.250000 -0.433013 2.600000 -0.250000 -0.433013 2.800000 -0.250000 -0.433013 3.000000 -0.250000 -0.433013 3.200000 -0.250000 -0.433013 3.400000 -0.250000 -0.433013 3.600000 -0.250000 -0.433013 3.800000 -0.250000 -0.433013 4.000000 -0.250000 -0.433013 4.200000 -0.250000 -0.433013 4.400000 -0.250000 -0.433013 4.600000 -0.250000 -0.433013 4.800000 -0.250000 -0.433013 5.000000 -0.404509 -0.293893 0.000000 -0.404509 -0.293893 0.200000 -0.404509 -0.293893 0.400000 -0.404509 -0.293893 0.600000 -0.404509 -0.293893 0.800000 -0.404509 -0.293893 1.000000 -0.404509 -0.293893 1.200000 -0.404509 -0.293893 1.400000 -0.404509 -0.293893 1.600000 -0.404509 -0.293893 1.800000 -0.404509 -0.293893 2.000000 -0.404509 -0.293893 2.200000 -0.404509 -0.293893 2.400000 -0.404509 -0.293893 2.600000 -0.404509 -0.293893 2.800000 -0.404509 -0.293893 3.000000 -0.404509 -0.293893 3.200000 -0.404509 -0.293893 3.400000 -0.404509 -0.293893 3.600000 -0.404509 -0.293893 3.800000 -0.404509 -0.293893 4.000000 -0.404509 -0.293893 4.200000 -0.404509 -0.293893 4.400000 -0.404509 -0.293893 4.600000 -0.404509 -0.293893 4.800000 -0.404509 -0.293893 5.000000 0.154509 -0.475528 0.000000 0.154509 -0.475528 0.200000 0.154509 -0.475528 0.400000 0.154509 -0.475528 0.600000 0.154509 -0.475528 0.800000 0.154509 -0.475528 1.000000 0.154509 -0.475528 1.200000 0.154509 -0.475528 1.400000 0.154509 -0.475528 1.600000 0.154509 -0.475528 1.800000 0.154509 -0.475528 2.000000 0.154509 -0.475528 2.200000 0.154509 -0.475528 2.400000 0.154509 -0.475528 2.600000 0.154509 -0.475528 2.800000 0.154509 -0.475528 3.000000 0.154509 -0.475528 3.200000 0.154509 -0.475528 3.400000 0.154509 -0.475528 3.600000 0.154509 -0.475528 3.800000 0.154509 -0.475528 4.000000 0.154509 -0.475528 4.200000 0.154509 -0.475528 4.400000 0.154509 -0.475528 4.600000 0.154509 -0.475528 4.800000 0.154509 -0.475528 5.000000 -0.034219 -0.304220 0.000000 -0.034219 -0.304220 0.200000 -0.034219 -0.304220 0.400000 -0.034219 -0.304220 0.600000 -0.034219 -0.304220 0.800000 -0.034219 -0.304220 1.000000 -0.034219 -0.304220 1.200000 -0.034219 -0.304220 1.400000 -0.034219 -0.304220 1.600000 -0.034219 -0.304220 1.800000 -0.034219 -0.304220 2.000000 -0.034219 -0.304220 2.200000 -0.034219 -0.304220 2.400000 -0.034219 -0.304220 2.600000 -0.034219 -0.304220 2.800000 -0.034219 -0.304220 3.000000 -0.034219 -0.304220 3.200000 -0.034219 -0.304220 3.400000 -0.034219 -0.304220 3.600000 -0.034219 -0.304220 3.800000 -0.034219 -0.304220 4.000000 -0.034219 -0.304220 4.200000 -0.034219 -0.304220 4.400000 -0.034219 -0.304220 4.600000 -0.034219 -0.304220 4.800000 -0.034219 -0.304220 5.000000 0.334565 -0.371572 0.000000 0.334565 -0.371572 0.200000 0.334565 -0.371572 0.400000 0.334565 -0.371572 0.600000 0.334565 -0.371572 0.800000 0.334565 -0.371572 1.000000 0.334565 -0.371572 1.200000 0.334565 -0.371572 1.400000 0.334565 -0.371572 1.600000 0.334565 -0.371572 1.800000 0.334565 -0.371572 2.000000 0.334565 -0.371572 2.200000 0.334565 -0.371572 2.400000 0.334565 -0.371572 2.600000 0.334565 -0.371572 2.800000 0.334565 -0.371572 3.000000 0.334565 -0.371572 3.200000 0.334565 -0.371572 3.400000 0.334565 -0.371572 3.600000 0.334565 -0.371572 3.800000 0.334565 -0.371572 4.000000 0.334565 -0.371572 4.200000 0.334565 -0.371572 4.400000 0.334565 -0.371572 4.600000 0.334565 -0.371572 4.800000 0.334565 -0.371572 5.000000 -0.250000 -0.216506 0.000000 -0.250000 -0.216506 0.200000 -0.250000 -0.216506 0.400000 -0.250000 -0.216506 0.600000 -0.250000 -0.216506 0.800000 -0.250000 -0.216506 1.000000 -0.250000 -0.216506 1.200000 -0.250000 -0.216506 1.400000 -0.250000 -0.216506 1.600000 -0.250000 -0.216506 1.800000 -0.250000 -0.216506 2.000000 -0.250000 -0.216506 2.200000 -0.250000 -0.216506 2.400000 -0.250000 -0.216506 2.600000 -0.250000 -0.216506 2.800000 -0.250000 -0.216506 3.000000 -0.250000 -0.216506 3.200000 -0.250000 -0.216506 3.400000 -0.250000 -0.216506 3.600000 -0.250000 -0.216506 3.800000 -0.250000 -0.216506 4.000000 -0.250000 -0.216506 4.200000 -0.250000 -0.216506 4.400000 -0.250000 -0.216506 4.600000 -0.250000 -0.216506 4.800000 -0.250000 -0.216506 5.000000 -0.489074 -0.103956 0.000000 -0.489074 -0.103956 0.200000 -0.489074 -0.103956 0.400000 -0.489074 -0.103956 0.600000 -0.489074 -0.103956 0.800000 -0.489074 -0.103956 1.000000 -0.489074 -0.103956 1.200000 -0.489074 -0.103956 1.400000 -0.489074 -0.103956 1.600000 -0.489074 -0.103956 1.800000 -0.489074 -0.103956 2.000000 -0.489074 -0.103956 2.200000 -0.489074 -0.103956 2.400000 -0.489074 -0.103956 2.600000 -0.489074 -0.103956 2.800000 -0.489074 -0.103956 3.000000 -0.489074 -0.103956 3.200000 -0.489074 -0.103956 3.400000 -0.489074 -0.103956 3.600000 -0.489074 -0.103956 3.800000 -0.489074 -0.103956 4.000000 -0.489074 -0.103956 4.200000 -0.489074 -0.103956 4.400000 -0.489074 -0.103956 4.600000 -0.489074 -0.103956 4.800000 -0.489074 -0.103956 5.000000 -0.016174 -0.111179 0.000000 -0.016174 -0.111179 0.200000 -0.016174 -0.111179 0.400000 -0.016174 -0.111179 0.600000 -0.016174 -0.111179 0.800000 -0.016174 -0.111179 1.000000 -0.016174 -0.111179 1.200000 -0.016174 -0.111179 1.400000 -0.016174 -0.111179 1.600000 -0.016174 -0.111179 1.800000 -0.016174 -0.111179 2.000000 -0.016174 -0.111179 2.200000 -0.016174 -0.111179 2.400000 -0.016174 -0.111179 2.600000 -0.016174 -0.111179 2.800000 -0.016174 -0.111179 3.000000 -0.016174 -0.111179 3.200000 -0.016174 -0.111179 3.400000 -0.016174 -0.111179 3.600000 -0.016174 -0.111179 3.800000 -0.016174 -0.111179 4.000000 -0.016174 -0.111179 4.200000 -0.016174 -0.111179 4.400000 -0.016174 -0.111179 4.600000 -0.016174 -0.111179 4.800000 -0.016174 -0.111179 5.000000 0.159196 -0.241376 0.000000 0.159196 -0.241376 0.200000 0.159196 -0.241376 0.400000 0.159196 -0.241376 0.600000 0.159196 -0.241376 0.800000 0.159196 -0.241376 1.000000 0.159196 -0.241376 1.200000 0.159196 -0.241376 1.400000 0.159196 -0.241376 1.600000 0.159196 -0.241376 1.800000 0.159196 -0.241376 2.000000 0.159196 -0.241376 2.200000 0.159196 -0.241376 2.400000 0.159196 -0.241376 2.600000 0.159196 -0.241376 2.800000 0.159196 -0.241376 3.000000 0.159196 -0.241376 3.200000 0.159196 -0.241376 3.400000 0.159196 -0.241376 3.600000 0.159196 -0.241376 3.800000 0.159196 -0.241376 4.000000 0.159196 -0.241376 4.200000 0.159196 -0.241376 4.400000 0.159196 -0.241376 4.600000 0.159196 -0.241376 4.800000 0.159196 -0.241376 5.000000 0.456773 -0.203368 0.000000 0.456773 -0.203368 0.200000 0.456773 -0.203368 0.400000 0.456773 -0.203368 0.600000 0.456773 -0.203368 0.800000 0.456773 -0.203368 1.000000 0.456773 -0.203368 1.200000 0.456773 -0.203368 1.400000 0.456773 -0.203368 1.600000 0.456773 -0.203368 1.800000 0.456773 -0.203368 2.000000 0.456773 -0.203368 2.200000 0.456773 -0.203368 2.400000 0.456773 -0.203368 2.600000 0.456773 -0.203368 2.800000 0.456773 -0.203368 3.000000 0.456773 -0.203368 3.200000 0.456773 -0.203368 3.400000 0.456773 -0.203368 3.600000 0.456773 -0.203368 3.800000 0.456773 -0.203368 4.000000 0.456773 -0.203368 4.200000 0.456773 -0.203368 4.400000 0.456773 -0.203368 4.600000 0.456773 -0.203368 4.800000 0.456773 -0.203368 5.000000 -0.250000 -0.000000 0.000000 -0.250000 -0.000000 0.200000 -0.250000 -0.000000 0.400000 -0.250000 -0.000000 0.600000 -0.250000 -0.000000 0.800000 -0.250000 -0.000000 1.000000 -0.250000 -0.000000 1.200000 -0.250000 -0.000000 1.400000 -0.250000 -0.000000 1.600000 -0.250000 -0.000000 1.800000 -0.250000 -0.000000 2.000000 -0.250000 -0.000000 2.200000 -0.250000 -0.000000 2.400000 -0.250000 -0.000000 2.600000 -0.250000 -0.000000 2.800000 -0.250000 -0.000000 3.000000 -0.250000 -0.000000 3.200000 -0.250000 -0.000000 3.400000 -0.250000 -0.000000 3.600000 -0.250000 -0.000000 3.800000 -0.250000 -0.000000 4.000000 -0.250000 -0.000000 4.200000 -0.250000 -0.000000 4.400000 -0.250000 -0.000000 4.600000 -0.250000 -0.000000 4.800000 -0.250000 -0.000000 5.000000 -0.489074 0.103956 0.000000 -0.489074 0.103956 0.200000 -0.489074 0.103956 0.400000 -0.489074 0.103956 0.600000 -0.489074 0.103956 0.800000 -0.489074 0.103956 1.000000 -0.489074 0.103956 1.200000 -0.489074 0.103956 1.400000 -0.489074 0.103956 1.600000 -0.489074 0.103956 1.800000 -0.489074 0.103956 2.000000 -0.489074 0.103956 2.200000 -0.489074 0.103956 2.400000 -0.489074 0.103956 2.600000 -0.489074 0.103956 2.800000 -0.489074 0.103956 3.000000 -0.489074 0.103956 3.200000 -0.489074 0.103956 3.400000 -0.489074 0.103956 3.600000 -0.489074 0.103956 3.800000 -0.489074 0.103956 4.000000 -0.489074 0.103956 4.200000 -0.489074 0.103956 4.400000 -0.489074 0.103956 4.600000 -0.489074 0.103956 4.800000 -0.489074 0.103956 5.000000 0.500000 0.000000 0.000000 0.500000 0.000000 0.200000 0.500000 0.000000 0.400000 0.500000 0.000000 0.
[...]
<PointData>
<DataArray type="Float32" Name="Velocity" NumberOfComponents="3" format="ascii">
 -7.86778573e-34
 -7.22056221e-33
 -5.58763525e-33
 -4.79356219e-34
 -4.54069370e-33
 -8.20106923e-33
 -4.77671634e-34
 -4.54081492e-33
 -8.16536139e-33
 -4.78835695e-34
 -4.55522134e-33
 -8.16318819e-33
 -4.78744824e-34
 -4.55476400e-33
 -8.16302730e-33
 -4.78720258e-34
 -4.55468355e-33
 -8.16294134e-33
 -4.78707080e-34
 -4.55457555e-33
 -8.16295089e-33
 -4.78705427e-34
 -4.55456931e-33
 -8.16294060e-33
 -4.78704692e-34
 -4.55456821e-33
 -8.16293399e-33
 -4.78704508e-34
 -4.55456857e-33
 -8.16293252e-33
 -4.78704508e-34
 -4.55456894e-33
 -8.16293179e-33
 -4.78704508e-34
 -4.55456931e-33
 -8.16293179e-33
 -4.78704508e-34
 -4.55456931e-33
 -8.16293179e-33
 -4.78704508e-34
 -4.55456931e-33
 -8.16293179e-33
 -4.78704508e-34
 -4.55456894e-33
 -8.16293179e-33
 -4.78704554e-34
 -4.55456857e-33
 -8.16293179e-33
 -4.78704692e-34
 -4.55456931e-33
 -8.16293399e-33
 -4.78706299e-34
 -4.55458253e-33
 -8.16294060e-33
 -4.78699044e-34
 -4.55450282e-33
 -8.16294281e-33
 -4.78737845e-34
 -4.55488963e-33
 -8.16297073e-33
 -4.78692845e-34
 -4.55451017e-33
 -8.16319040e-33
 -4.78706942e-34
 -4.55378540e-33
 -8.16194070e-33
 -4.78956183e-34
 -4.55575950e-33
 -8.16329987e-33
 -4.84729697e-34
 -4.60941861e-33
 -8.16974672e-33
 -4.34915553e-34
 -4.14664228e-33
 -8.08274985e-33
 2.05407880e-34
 1.95687704e-33
 -1.93169813e-33
 -3.43907476e-33
 -4.59194415e-33
 -5.49391897e-33
 -6.65687456e-34
 8.69722189e-34
 -7.53189189e-33
 -8.24670541e-34
 5.14204529e-34
 -7.47439185e-33
 -8.46567981e-34
 4.80770164e-34
 -7.46665048e-33
 -8.42969131e-34
 4.86825659e-34
 -7.46499451e-33
 -8.42994386e-34
 4.86715135e-34
 -7.46488724e-33
 -8.43049304e-34
 4.86687860e-34
 -7.46492251e-33
 -8.43018263e-34
 4.86730517e-34
 -7.46490635e-33
 -8.43018906e-34
 4.86721839e-34
 -7.46489753e-33
 -8.43020467e-34
 4.86718165e-34
 -7.46489459e-33
 -8.43020467e-34
 4.86717936e-34
 -7.46489312e-33
 -8.43020467e-34
 4.86717936e-34
 -7.46489312e-33
 -8.43020467e-34
 4.86718028e-34
 -7.46489312e-33
 -8.43020467e-34
 4.86718074e-34
 -7.46489312e-33
 -8.43020467e-34
 4.86718120e-34
 -7.46489312e-33
 -8.43020467e-34
 4.86718165e-34
 -7.46489312e-33
 -8.43022029e-34
 4.86716972e-34
 -7.46489459e-33
 -8.43017712e-34
 4.86724181e-34
 -7.46489092e-33
 -8.43038192e-34
 4.86700809e-34
 -7.46490341e-33
 -8.43037457e-34
 4.86709257e-34
 -7.46491222e-33
 -8.43038559e-34
 4.86730701e-34
 -7.46515026e-33
 -8.42219295e-34
 4.87682438e-34
 -7.46336792e-33
 -8.49045060e-34
 4.78301810e-34
 -7.47244053e-33
 -8.19951574e-34
 5.15072467e-34
 -7.44150372e-33
 -8.79081512e-34
 4.38777052e-34
 -7.43480708e-33
 1.84908329e-33
 4.14053081e-33
 -2.14366566e-33
 -4.74090831e-33
 -2.84561560e-33
 -5.17517816e-33
 -4.91651258e-35
 1.21219356e-33
 -7.00160949e-33
 -6.08354096e-34
 7.56541506e-34
 -7.01702022e-33
 -5.73130913e-34
 7.86964815e-34
 -6.99210342e-33
 -5.71269500e-34
 7.88056005e-34
 -6.99039381e-33
 -5.72489029e-34
 7.87271638e-34
 -6.99024246e-33
 -5.72191023e-34
 7.87526481e-34
 -6.99018663e-33
 -5.72147860e-34
 7.87543195e-34
 -6.99017928e-33
 -5.72168753e-34
 7.87526389e-34
 -6.99017414e-33
 -5.72170911e-34
 7.87525930e-34
 -6.99017120e-33
 -5.72171278e-34
 7.87526114e-34
 -6.99016973e-33
 -5.72171508e-34
 7.87526206e-34
 -6.99016973e-33
 -5.72171462e-34
 7.87526297e-34
 -6.99016973e-33
 -5.72171416e-34
 7.87526389e-34
 -6.99016973e-33
 -5.72171462e-34
 7.87526389e-34
 -6.99016973e-33
 -5.72171462e-34
 7.87526389e-34
 -6.99016899e-33
 -5.72173391e-34
 7.87526114e-34
 -6.99017046e-33
 -5.72166090e-34
 7.87529236e-34
 -6.99016605e-33
 -5.72219308e-34
 7.87510134e-34
 -6.99019103e-33
 -5.72031780e-34
 7.87604541e-34
 -6.99012197e-33
 -5.72691802e-34
 7.87320953e-34
 -6.99047095e-33
 -5.69932604e-34
 7.88258226e-34
 -6.98883775e-33
 -5.85136751e-34
 7.83171458e-34
 -6.99747836e-33
 -5.03217560e-34
 8.19575967e-34
 -6.96636450e-33
 -7.25391916e-34
 6.86596516e-34
 -7.00027457e-33
 3.45838777e-33
 3.13645733e-33
 -2.68885039e-33
 2.27673952e-33
 -5.07971480e-33
 -5.85268829e-33
 8.37861976e-34
 6.57105612e-34
 -7.99603730e-33
 9.13372886e-34
 3.33797072e-34
 -7.92534601e-33
 9.27454390e-34
 2.94690396e-34
 -7.91656066e-33
 9.25724393e-34
 3.00786298e-34
 -7.91521178e-33
 9.25765811e-34
 3.00848149e-34
 -7.91509129e-33
 9.25807137e-34
 3.00778171e-34
 -7.91512656e-33
 9.25790790e-34
 3.00818969e-34
 -7.91511260e-33
 9.25791616e-34
 3.00812310e-34
 -7.91510305e-33
 9.25792718e-34
 3.00808453e-34
 -7.91509938e-33
 9.25792810e-34
 3.00808178e-34
 -7.91509864e-33
 9.25792810e-34
 3.00808178e-34
 -7.91509791e-33
 9.25792810e-34
 3.00808247e-34
 -7.91509791e-33
 9.25792810e-34
 3.00808316e-34
 -7.91509791e-33
 9.25792810e-34
 3.00808407e-34
 -7.91509791e-33
 9.25792902e-34
 3.00808362e-34
 -7.91509791e-33
 9.25793820e-34
 3.00807512e-34
 -7.91509938e-33
 9.25790698e-34
 3.00815502e-34
 -7.91509423e-33
 9.25811545e-34
 3.00775347e-34
 -7.91511995e-33
 9.25799331e-34
 3.00838736e-34
 -7.91510893e-33
 9.25747076e-34
 3.00886192e-34
 -7.91525513e-33
 9.25733025e-34
 3.01133735e-34
 -7.91418837e-33
 9.28959298e-34
 2.93716962e-34
 -7.92256523e-33
 9.09671548e-34
 3.38464634e-34
 -7.88996069e-33
 9.46175515e-34
 2.60741958e-34
 -7.88962788e-33
 -9.44489415e-34
 4.41164316e-33
 -2.17533476e-33
 -1.29122785e-34
 -9.76762682e-35
 6.25117481e-01
 8.39121290e-04
 4.19867225e-03
 6.25572085e-01
 1.50528213e-04
 8.45665461e-04
 6.24726593e-01
 2.21897917e-05
 1.02080325e-04
 6.24737084e-01
 2.42506417e-06
 1.10224018e-05
 6.24726593e-01
 5.73879504e-07
 -5.71431826e-07
 6.24719620e-01
 3.94010499e-07
 1.73173458e-08
 6.24720693e-01
 1.74485422e-07
 3.44886359e-07
 6.24719679e-01
 5.82348498e-08
 1.83910814e-07
 6.24718964e-01
 1.57577507e-08
 7.14572508e-08
 6.24718666e-01
 2.50758658e-09
 2.19192664e-08
 6.24718547e-01
 -4.00550371e-10
 4.66792249e-09
 6.24718547e-01
 -5.68470049e-10
 5.13644349e-10
 6.24718547e-01
 -2.89445967e-10
 -7.73943756e-11
 6.24718547e-01
 1.26486710e-10
 -1.88705318e-09
 6.24718547e-01
 1.13081877e-09
 -1.08487770e-08
 6.24718547e-01
 3.83491372e-09
 -4.29861657e-08
 6.24718606e-01
 9.95460869e-09
 -1.30179018e-07
 6.24718785e-01
 1.91351912e-08
 -3.49070774e-07
 6.24719203e-01
 -1.86182114e-09
 -4.95252607e-07
 6.24720395e-01
 1.52641874e-07
 -8.24998551e-07
 6.24720156e-01
 2.82161352e-07
 2.39960991e-06
 6.24725044e-01
 5.84331110e-06
 1.97299942e-05
 6.24696374e-01
 2.02211340e-05
 7.99207337e-05
 6.24613166e-01
 6.13998855e-05
 1.89663508e-04
 6.24412358e-01
 1.53761357e-04
 1.68324355e-03
 6.25621617e-01
 3.89360353e-33
 -3.53628631e-33
 -6.09437471e-33
 3.70625930e-34
 1.08584188e-33
 -8.16952117e-33
 7.50779288e-34
 6.14005102e-34
 -8.17501881e-33
 7.25441415e-34
 6.48867463e-34
 -8.16089818e-33
 7.22444043e-34
 6.52241683e-34
 -8.15966538e-33
 7.23611363e-34
 6.51081571e-34
 -8.15968889e-33
 7.23417728e-34
 6.51338481e-34
 -8.15966906e-33
 7.23383657e-34
 6.51373241e-34
 -8.15966244e-33
 7.23401336e-34
 6.51355608e-34
 -8.15965804e-33
 7.23403218e-34
 6.51355562e-34
 -8.15965510e-33
 7.23403815e-34
 6.51355746e-34
 -8.15965363e-33
 7.23404091e-34
 6.51355746e-34
 -8.15965363e-33
 7.23404091e-34
 6.51355884e-34
 -8.15965363e-33
 7.23404045e-34
 6.51355884e-34
 -8.15965363e-33
 7.23404137e-34
 6.51355838e-34
 -8.15965363e-33
 7.23404183e-34
 6.51355700e-34
 -8.15965289e-33
 7.23405744e-34
 6.51355011e-34
 -8.15965436e-33
 7.23402484e-34
 6.51356113e-34
 -8.15964996e-33
 7.23450238e-34
 6.51333935e-34
 -8.15968742e-33
 7.23235848e-34
 6.51483168e-34
 -8.15956620e-33
 7.24070495e-34
 6.50856574e-34
 -8.16002758e-33
 7.21784801e-34
 6.52576653e-34
 -8.15867283e-33
 7.30306998e-34
 6.47807360e-34
 -8.16571624e-33
 6.82247738e-34
 6.73779403e-34
 -8.13047419e-33
 8.79373916e-34
 4.94013440e-34
 -8.16952852e-33
 -2.74703112e-33
 3.79969916e-33
 -2.98592977e-33
 -2.81531999e-34
 -1.05655843e-34
 5.62500000e-01
 2.44540884e-03
 2.47042254e-03
 5.62334180e-01
 4.91254614e-04
 3.51840106e-04
 5.59495091e-01
 9.60298712e-05
 5.05743155e-05
 5.59398353e-01
 1.04254523e-05
 3.69367513e-06
 5.59314489e-01
 7.86171995e-07
 -1.21218966e-06
 5.59313238e-01
 -2.75243099e-08
 4.63112912e-07
 5.59314370e-01
 -5.20599777e-08
 4.39308366e-07
 5.59313238e-01
 -2.05680930e-08
 2.03265913e-07
 5.59312701e-01
 -7.32668903e-09
 7.74727766e-08
 5.59312522e-01
 -2.74343503e-09
 2.23481944e-08
 5.59312463e-01
 -9.14970766e-10
 4.45688242e-09
 5.59312403e-01
 -3.35001693e-10
 4.54987742e-10
 5.59312403e-01
 -1.57485927e-10
 2.51661053e-11
 5.59312403e-01
 3.52717050e-10
 -1.51652513e-09
 5.59312403e-01
 2.84173041e-09
 -1.07250298e-08
 5.59312403e-01
 1.12693730e-08
 -4.49055264e-08
 5.59312463e-01
 3.44576989e-08
 -1.48937588e-07
 5.59312522e-01
 9.06795208e-08
 -3.44764885e-07
 5.59312940e-01
 1.62848025e-07
 -8.11646146e-07
 5.59313297e-01
 2.66739647e-07
 -6.77150467e-07
 5.59314668e-01
 1.02998854e-08
 2.42272472e-06
 5.59312344e-01
 -1.81848191e-06
 2.15155378e-05
 5.59310675e-01
 5.23999051e-06
 3.81121572e-05
 5.59147298e-01
 1.86957303e-04
 5.95546560e-04
 5.59035182e-01
 -7.24389451e-04
 9.02933360e-04
 5.56986511e-01
 -5.89067072e-33
 -7.39784237e-34
 -4.85274961e-33
 1.39241370e-34
 1.02721501e-33
 -8.23691006e-33
 -2.25256309e-34
 9.72977521e-34
 -8.01224590e-33
 -1.86215432e-34
 9.60509658e-34
 -8.03216465e-33
 -2.03667804e-34
 9.51227661e-34
 -8.02974314e-33
 -2.02706493e-34
 9.52312330e-34
 -8.03086720e-33
 -2.02244584e-34
 9.52203597e-34
 -8.03090320e-33
 -2.02387296e-34
 9.52147394e-34
 -8.03086059e-33
 -2.02390235e-34
 9.52162914e-34
 -8.03086500e-33
 -2.02386814e-34
 9.52164383e-34
 -8.03086573e-33
 -2.02388788e-34
 9.52164016e-34
 -8.03086573e-33
 -2.02388903e-34
 9.52164199e-34
 -8.03086573e-33
 -2.02388811e-34
 9.52164199e-34
 -8.03086647e-33
 -2.02388788e-34
 9.52164199e-34
 -8.03086647e-33
 -2.02388811e-34
 9.52164199e-34
 -8.03086647e-33
 -2.02388880e-34
 9.52164108e-34
 -8.03086647e-33
 -2.02389225e-34
 9.52164016e-34
 -8.03086647e-33
 -2.02387916e-34
 9.52164291e-34
 -8.03086573e-33
 -2.02403367e-34
 9.52170812e-34
 -8.03087896e-33
 -2.02288688e-34
 9.52181556e-34
 -8.03083194e-33
 -2.02782854e-34
 9.52171363e-34
 -8.03104353e-33
 -2.00918387e-34
 9.52640367e-34
 -8.03031325e-33
 -2.07104610e-34
 9.52049038e-34
 -8.03428642e-33
 -1.67566949e-34
 9.48361934e-34
 -8.00778637e-33
 -4.01789250e-34
 9.38351865e-34
 -8.05250438e-33
 4.58466931e-33
 1.47151505e-33
 -4.39248223e-33
 -7.95239320e-35
 -1.35817054e-34
 9.49510872e-01
 8.00745038e-04
 3.36476741e-03
 9.58859324e-01
 1.39203315e-04
 9.04397864e-04
 9.65890884e-01
 8.25920870e-06
 1.16552532e-04
 9.67684507e-01
 1.39426575e-07
 9.79222591e-07
 9.67944086e-01
 4.07795028e-07
 -2.15754403e-06
 9.67980087e-01
 6.47977686e-07
 9.34462662e-07
 9.67979968e-01
 3.61906359e-07
 9.55417590e-07
 9.67978179e-01
 1.32122452e-07
 5.13904013e-07
 9.67977583e-01
 3.94933650e-08
 2.02636627e-07
 9.67977345e-01
 8.62189342e-09
 6.18450926e-08
 9.67977285e-01
 4.26553515e-10
 1.42526222e-08
 9.67977285e-01
 -7.70400743e-10
 1.99010364e-09
 9.67977285e-01
 -4.52045457e-10
 -4.30594560e-10
 9.67977285e-01
 1.40377932e-10
 -5.58397284e-09
 9.67977285e-01
 1.13931675e-09
 -3.02252303e-08
 9.67977285e-01
 2.70461586e-09
 -1.14104139e-07
 9.67977285e-01
 4.15370893e-09
 -3.34865632e-07
 9.67977405e-01
 1.02935305e-08
 -8.13166707e-07
 9.67977703e-01
 -6.83155790e-08
 -1.41689134e-06
 9.67978299e-01
 -5.54909292e-08
 -5.57138833e-07
 9.67978060e-01
 9.73208330e-07
 8.63658715e-06
 9.67980206e-01
 5.03525962e-06
 4.34566136e-05
 9.67952192e-01
 1.89097700e-05
 2.00497001e-04
 9.67944443e-01
 2.26554439e-05
 4.68993181e-04
 9.67927039e-01
 7.50258841e-05
 5.77017898e-04
 9.67831254e-01
 4.59519798e-34
 9.67370780e-35
 6.65578306e-01
 -2.38967873e-03
 3.32885841e-03
 6.67749584e-01
 -5.73307916e-04
 5.93639910e-04
 6.67231023e-01
 -1.07365711e-04
 8.94594195e-05
 6.67414665e-01
 -9.88671491e-06
 9.78481421e-06
 6.67373240e-01
 7.94615232e-07
 -6.15549425e-07
 6.67375922e-01
 8.86620228e-07
 4.77677304e-07
 6.67377472e-01
 4.01741119e-07
 5.42996759e-07
 6.67376637e-01
 1.38585122e-07
 2.59736822e-07
 6.67376161e-01
 3.90249291e-08
 9.85156206e-08
 6.67375982e-01
 8.48014192e-09
 2.89523747e-08
 6.67375922e-01
 6.81892376e-10
 5.86766502e-09
 6.67375863e-01
 -4.92751062e-10
 5.41375555e-10
 6.67375863e-01
 -1.98542821e-10
 -1.04881402e-10
 6.67375863e-01
 1.89842586e-11
 -2.08251660e-09
 6.67375863e-01
 -1.19205634e-09
 -1.34021132e-08
 6.67375863e-01
 -7.08861059e-09
 -5.47099539e-08
 6.67375922e-01
 -2.99819334e-08
 -1.73490406e-07
 6.67376101e-01
 -8.92315555e-08
 -4.13700633e-07
 6.67376518e-01
 -2.27996409e-07
 -9.15782039e-07
 6.67376995e-01
 -4.14727168e-07
 -6.04967227e-07
 6.67379081e-01
 8.75750406e-09
 2.20480638e-06
 6.67376935e-01
 3.45790545e-06
 2.04459902e-05
 6.67369604e-01
 1.20855375e-05
 6.68545399e-05
 6.67268276e-01
 3.96743199e-05
 6.07518712e-04
 6.67136848e-01
 7.25527643e-04
 7.50225969e-04
 6.65930748e-01
 5.84900018e-33
 -1.82443611e-33
 -4.73514875e-33
 1.94231386e-34
 1.03703691e-33
 -8.89683405e-33
 4.32271609e-34
 9.08642256e-34
 -8.55057823e-33
 3.83550215e-34
 9.01662850e-34
 -8.54912503e-33
 3.96909525e-34
 8.88211246e-34
 -8.53980189e-33
 3.96085255e-34
 8.89464892e-34
 -8.54059241e-33
 3.95851809e-34
 8.89306292e-34
 -8.54056449e-33
 3.95924038e-34
 8.89261660e-34
 -8.54054466e-33
 3.95930650e-34
 8.89276997e-34
 -8.54055200e-33
 3.95930283e-34
 8.89278282e-34
 -8.54055274e-33
 3.95932028e-34
 8.89278007e-34
 -8.54055274e-33
 3.95932211e-34
 8.89278190e-34
 -8.54055347e-33
 3.95932211e-34
 8.89278190e-34
 -8.54055347e-33
 3.95932165e-34
 8.89278190e-34
 -8.54055347e-33
 3.95932165e-34
 8.89278190e-34
 -8.54055347e-33
 3.95932074e-34
 8.89278282e-34
 -8.54055347e-33
 3.95932395e-34
 8.89278466e-34
 -8.54055347e-33
 3.95930788e-34
 8.89280578e-34
 -8.54055274e-33
 3.95939788e-34
 8.89277180e-34
 -8.54056302e-33
 3.95858421e-34
 8.89320067e-34
 -8.54052188e-33
 3.96419674e-34
 8.89071561e-34
 -8.54079151e-33
 3.93841668e-34
 8.90376451e-34
 -8.53977764e-33
 4.00927282e-34
 8.85888726e-34
 -8.54388085e-33
 3.79482568e-34
 8.98011471e-34
 -8.52855902e-33
 4.79791473e-34
 8.67655798e-34
 -8.56140086e-33
 -4.15837408e-33
 2.35486453e-33
 -4.95949479e-33
 -2.94466937e-34
 1.41046442e-34
 7.50000000e-01
 4.49610874e-03
 1.00011333e-04
 7.55547464e-01
 1.10330584e-03
 -1.62784418e-04
 7.56302536e-01
 2.02275492e-04
 -5.50100813e-05
 7.56797016e-01
 2.60330617e-05
 -1.49204261e-05
 7.56757557e-01
 2.73185401e-06
 -8.45876571e-07
 7.56778359e-01
 2.35996936e-07
 1.43858119e-06
 7.56773055e-01
 8.23322992e-08
 9.07284630e-07
 7.56772339e-01
 5.38299751e-08
 4.17021397e-07
 7.56772280e-01
 1.84174827e-08
 1.51664281e-07
 7.56772161e-01
 4.02157241e-09
 4.30618812e-08
 7.56772161e-01
 2.01946182e-10
 9.06562914e-09
 7.56772161e-01
 -4.41763098e-10
 9.87920856e-10
 7.56772161e-01
 -2.59727434e-10
 -1.37628908e-10
 7.56772161e-01
 2.31079426e-11
 -3.16117643e-09
 7.56772161e-01
 3.78350740e-10
 -2.00731680e-08
 7.56772161e-01
 3.39672901e-10
 -8.07845240e-08
 7.56772161e-01
 2.12308682e-09
 -2.50907163e-07
 7.56772161e-01
 -1.59909472e-08
 -6.38515417e-07
 7.56772161e-01
 5.57764857e-08
 -1.19241190e-06
 7.56772041e-01
 -1.23459557e-07
 -7.60622697e-07
 7.56773055e-01
 7.14801217e-07
 4.54455949e-06
 7.56769598e-01
 2.77189287e-07
 4.03680096e-05
 7.56771863e-01
 2.68293406e-05
 1.33404334e-04
 7.56770730e-01
 3.61112279e-06
 4.05296538e-04
 7.56868899e-01
 -9.56857170e-04
 3.69025976e-04
 7.56286800e-01
 -5.79581016e-33
 1.97805963e-33
 -4.89959600e-33
 5.90147801e-34
 9.13184715e-34
 -8.85855849e-33
 1.89447996e-34
 9.49963913e-34
 -8.45931285e-33
 2.13370064e-34
 9.52086690e-34
 -8.46618949e-33
 1.98597153e-34
 9.53221134e-34
 -8.45615151e-33
 2.03670720e-34
 9.52235923e-34
 -8.45729247e-33
 2.02229362e-34
 9.52059048e-34
 -8.45663199e-33
 2.02384495e-34
 9.52171822e-34
 -8.45677011e-33
 2.02395423e-34
 9.52161536e-34
 -8.45676130e-33
 2.02387778e-34
 9.52163097e-34
 -8.45676056e-33
 2.02388306e-34
 9.52164567e-34
 -8.45676203e-33
 2.02388742e-34
 9.52164383e-34
 -8.45676276e-33
 2.02388719e-34
 9.52164291e-34
 -8.45676276e-33
 2.02388719e-34
 9.52164291e-34
 -8.45676276e-33
 2.02388719e-34
 9.52164291e-34
 -8.45676276e-33
 2.02388788e-34
 9.52164383e-34
 -8.45676276e-33
 2.02389018e-34
 9.52164659e-34
 -8.45676276e-33
 2.02392026e-34
 9.52165118e-34
 -8.45676203e-33
 2.02388788e-34
 9.52165210e-34
 -8.45676717e-33
 2.02460007e-34
 9.52162730e-34
 -8.45672603e-33
 2.02096246e-34
 9.52182107e-34
 -8.45693395e-33
 2.04228345e-34
 9.51928917e-34
 -8.45578490e-33
 1.94828730e-34
 9.52388003e-34
 -8.46019815e-33
 2.23175615e-34
 9.50236205e-34
 -8.44563377e-33
 1.43159761e-34
 9.68949432e-34
 -8.47209195e-33
 4.67363293e-33
 -4.89575765e-34
 -4.60968163e-33
 5.11809175e-33
 4.69335818e-34
 -4.63213137e-33
 -6.82345726e-34
 1.04831100e-33
 -6.83070878e-33
 2.68558444e-35
 9.78223624e-34
 -6.82104327e-33
 -1.12394235e-35
 9.74121332e-34
 -6.79095650e-33
 2.66395833e-36
 9.72911675e-34
 -6.78847547e-33
 1.43410858e-37
 9.73503279e-34
 -6.78792960e-33
 -5.43406449e-38
 9.73413280e-34
 -6.78791123e-33
 3.41506777e-38
 9.73427515e-34
 -6.78792960e-33
 -2.36751337e-39
 9.73433209e-34
 -6.78793033e-33
 -4.15898378e-40
 9.73434678e-34
 -6.78793107e-33
 4.36106503e-40
 9.73435688e-34
 -6.78793107e-33
 3.42281163e-41
 9.73436055e-34
 -6.78793107e-33
 2.62238995e-41
 9.73436147e-34
 -6.78793107e-33
 3.48923318e-41
 9.73436147e-34
 -6.78793107e-33
 8.37149716e-41
 9.73436239e-34
 -6.78793107e-33
 1.90646656e-40
 9.73436331e-34
 -6.78793107e-33
 7.62398850e-40
 9.73436974e-34
 -6.78793107e-33
 -1.49374773e-39
 9.73437617e-34
 -6.78792960e-33
 1.19223678e-38
 9.73445055e-34
 -6.78793768e-33
 -8.80001591e-38
 9.73420352e-34
 -6.78788111e-33
 4.99310176e-37
 9.73597135e-34
 -6.78821172e-33
 -3.45911562e-36
 9.72488772e-34
 -6.78636766e-33
 1.78313338e-35
 9.76920937e-34
 -6.79432943e-33
 -6.42415928e-35
 9.63034859e-34
 -6.76803729e-33
 1.50328807e-34
 9.81407652e-34
 -6.80246752e-33
 -4.60926359e-33
 5.02235196e-34
 -2.78418188e-33
 -1.60118494e-34
 2.24948706e-34
 9.75247324e-01
 2.35357857e-03
 -1.27039303e-03
 9.84653354e-01
 7.44856836e-04
 -5.42065885e-04
 9.92869735e-01
 1.27806561e-04
 -1.42667253e-04
 9.94781554e-01
 1.77544025e-05
 -2.86197665e-05
 9.95077789e-01
 2.24053133e-06
 -1.80708150e-06
 9.95114923e-01
 5.02803232e-07
 1.60726779e-06
 9.95113254e-01
 3.10952203e-07
 1.23296854e-06
 9.95112360e-01
 1.31309733e-07
 6.13051384e-07
 9.95112181e-01
 4.03662916e-08
 2.27484577e-07
 9.95112121e-01
 9.64264224e-09
 6.89532271e-08
 9.95112121e-01
 8.25399915e-10
 1.62751146e-08
 9.95112121e-01
 -7.08319736e-10
 2.37941600e-09
 9.95112121e-01
 -3.92336719e-10
 -4.17805235e-10
 9.95112121e-01
 2.65541145e-10
 -6.10983664e-09
 9.95112121e-01
 1.15637766e-09
 -3.29192851e-08
 9.95112121e-01
 2.31521291e-09
 -1.23268592e-07
 9.95112121e-01
 1.02257902e-09
 -3.65894778e-07
 9.95112121e-01
 -8.13464673e-09
 -8.75823559e-07
 9.95112002e-01
 -6.24023286e-08
 -1.50641449e-06
 9.95112002e-01
 -2.36315287e-07
 -4.24164739e-07
 9.95111525e-01
 3.29608639e-07
 9.43774739e-06
 9.95114028e-01
 7.62834929e-07
 5.40516048e-05
 9.95112240e-01
 1.04729452e-05
 1.89633371e-04
 9.95163918e-01
 -8.72602395e-05
 4.31828317e-04
 9.95126724e-01
 -1.31389446e-04
 5.69770171e-04
 9.94984090e-01
 2.76192500e-34
 -1.38844264e-35
 9.49510872e-01
 -3.12486547e-03
 -1.54648803e-03
 9.58407760e-01
 -9.58196411e-04
 -6.70083507e-04
 9.66177344e-01
 -1.66691316e-04
 -1.77806971e-04
 9.67738450e-01
 -2.15746695e-05
 -3.94651506e-05
 9.67983663e-01
 -1.47495939e-07
 -3.22287292e-06
 9.68010068e-01
 8.70527288e-07
 1.44573198e-06
 9.68008399e-01
 4.16866783e-07
 1.18391188e-06
 9.68007982e-01
 1.44034033e-07
 5.85394048e-07
 9.68008101e-01
 3.87847869e-08
 2.15388312e-07
 9.68008161e-01
 7.94254795e-09
 6.50793339e-08
 9.68008220e-01
 3.37178785e-10
 1.50502846e-08
 9.68008220e-01
 -7.50915607e-10
 2.10997841e-09
 9.68008220e-01
 -4.00657285e-10
 -3.79011350e-10
 9.68008220e-01