<?xml version="1.0"?>
<VTKFile type="UnstructuredGrid"  byte_order="LittleEndian">
<UnstructuredGrid>
<Piece NumberOfPoints="593" NumberOfCells=" 1184">
<Points>
<DataArray type="Float32" NumberOfComponents="3" format="ascii">
0.000000 0.200000 0.000000 0.000000 0.300000 0.000000 0.000000 0.400000 0.000000 0.000000 0.500000 0.000000 0.000000 0.600000 0.000000 0.000000 0.700000 0.000000 0.000000 0.800000 0.000000 0.000000 0.900000 0.000000 0.000000 1.000000 0.000000 0.000000 0.000000 0.000000 0.000000 0.100000 0.000000 0.075000 0.225000 0.000000 0.075000 0.150000 0.000000 0.066667 0.333333 0.000000 0.071429 0.428571 0.000000 0.071429 0.571429 0.000000 0.066667 0.666667 0.000000 0.066667 0.866667 0.000000 0.075000 0.775000 0.000000 0.100000 1.000000 0.000000 0.100000 0.000000 0.000000 0.133333 0.066667 0.000000 0.133333 0.266667 0.000000 0.160000 0.180000 0.000000 0.142857 0.357143 0.000000 0.150000 0.925000 0.000000 0.142857 0.452381 0.000000 0.142857 0.547619 0.000000 0.142857 0.642857 0.000000 0.133333 0.733333 0.000000 0.160000 0.820000 0.000000 0.200000 1.000000 0.000000 0.200000 0.000000 0.000000 0.225000 0.075000 0.000000 0.214286 0.285714 0.000000 0.266667 0.133333 0.000000 0.285714 0.214286 0.000000 0.232143 0.417857 0.000000 0.240000 0.880000 0.000000 0.232143 0.513095 0.000000 0.232143 0.632143 0.000000 0.250000 0.800000 0.000000 0.214286 0.714286 0.000000 0.300000 1.000000 0.000000 0.333333 0.933333 0.000000 0.300000 0.000000 0.000000 0.333333 0.066667 0.000000 0.315476 0.401190 0.000000 0.309524 0.323810 0.000000 0.369048 0.272619 0.000000 0.357143 0.142857 0.000000 0.321429 0.478571 0.000000 0.357143 0.857143 0.000000 0.343333 0.766667 0.000000 0.315476 0.577381 0.000000 0.309524 0.676190 0.000000 0.400000 1.000000 0.000000 0.428571 0.928571 0.000000 0.400000 0.000000 0.000000 0.410714 0.439286 0.000000 0.428571 0.071429 0.000000 0.428571 0.338095 0.000000 0.428571 0.221429 0.000000 0.410714 0.539286 0.000000 0.480357 0.469643 0.000000 0.438571 0.828571 0.000000 0.436667 0.733333 0.000000 0.404762 0.638095 0.000000 0.500000 1.000000 0.000000 0.500000 0.900000 0.000000 0.500000 0.000000 0.000000 0.500000 0.400000 0.000000 0.500000 0.200000 0.000000 0.500000 0.100000 0.000000 0.500000 0.300000 0.000000 0.500000 0.600000 0.000000 0.550000 0.500000 0.000000 0.520000 0.800000 0.000000 0.530000 0.700000 0.000000 0.600000 1.000000 0.000000 0.600000 0.900000 0.000000 0.600000 0.000000 0.000000 0.580000 0.400000 0.000000 0.600000 0.100000 0.000000 0.580000 0.200000 0.000000 0.600000 0.300000 0.000000 0.600000 0.600000 0.000000 0.625000 0.500000 0.000000 0.620000 0.800000 0.000000 0.615000 0.700000 0.000000 0.700000 0.900000 0.000000 0.700000 1.000000 0.000000 0.700000 0.800000 0.000000 0.700000 0.000000 0.000000 0.710000 0.100000 0.000000 0.660000 0.400000 0.000000 0.700000 0.200000 0.000000 0.700000 0.300000 0.000000 0.700000 0.500000 0.000000 0.700000 0.600000 0.000000 0.700000 0.700000 0.000000 0.760000 0.750000 0.000000 0.800000 0.900000 0.000000 0.800000 1.000000 0.000000 0.820000 0.800000 0.000000 0.900000 1.000000 0.000000 0.800000 0.100000 0.000000 0.800000 0.200000 0.000000 0.800000 0.000000 0.000000 0.740000 0.400000 0.000000 0.800000 0.500000 0.000000 0.800000 0.300000 0.000000 0.800000 0.600000 0.000000 0.830000 0.700000 0.000000 0.900000 0.900000 0.000000 0.900000 0.800000 0.000000 1.000000 1.000000 0.000000 0.890000 0.100000 0.000000 0.900000 0.200000 0.000000 0.900000 0.000000 0.000000 0.900000 0.500000 0.000000 0.860000 0.400000 0.000000 0.900000 0.300000 0.000000 0.900000 0.600000 0.000000 0.975000 0.500000 0.000000 0.930000 0.700000 0.000000 1.000000 0.800000 0.000000 1.000000 0.900000 0.000000 1.100000 1.000000 0.000000 1.000000 0.100000 0.000000 1.000000 0.200000 0.000000 1.000000 0.000000 0.000000 0.960000 0.400000 0.000000 1.030000 0.300000 0.000000 1.000000 0.600000 0.000000 1.050000 0.500000 0.000000 1.070000 0.700000 0.000000 1.100000 0.800000 0.000000 1.110000 0.900000 0.000000 1.200000 1.000000 0.000000 1.200000 0.900000 0.000000 1.100000 0.100000 0.000000 1.100000 0.200000 0.000000 1.100000 0.000000 0.000000 1.100000 0.400000 0.000000 1.125000 0.500000 0.000000 1.115000 0.300000 0.000000 1.140000 0.600000 0.000000 1.150000 0.700000 0.000000 1.200000 0.800000 0.000000 1.300000 1.000000 0.000000 1.300000 0.900000 0.000000 1.190000 0.100000 0.000000 1.200000 0.200000 0.000000 1.200000 0.000000 0.000000 1.180000 0.400000 0.000000 1.200000 0.500000 0.000000 1.200000 0.300000 0.000000 1.220000 0.600000 0.000000 1.300000 0.800000 0.000000 1.230000 0.700000 0.000000 1.380000 0.800000 0.000000 1.400000 1.000000 0.000000 1.390000 0.900000 0.000000 1.290000 0.100000 0.000000 1.300000 0.200000 0.000000 1.300000 0.000000 0.000000 1.275000 0.500000 0.000000 1.260000 0.400000 0.000000 1.300000 0.300000 0.000000 1.300000 0.600000 0.000000 1.350000 0.500000 0.000000 1.370000 0.700000 0.000000 1.455000 0.850000 0.000000 1.440000 0.750000 0.000000 1.500000 1.000000 0.000000 1.510000 0.900000 0.000000 1.400000 0.200000 0.000000 1.400000 0.100000 0.000000 1.400000 0.000000 0.000000 1.340000 0.400000 0.000000 1.400000 0.300000 0.000000 1.450000 0.500000 0.000000 1.400000 0.600000 0.000000 1.500000 0.700000 0.000000 1.520000 0.800000 0.000000 1.600000 1.000000 0.000000 1.600000 0.900000 0.000000 1.480000 0.200000 0.000000 1.500000 0.000000 0.000000 1.490000 0.100000 0.000000 1.460000 0.400000 0.000000 1.500000 0.300000 0.000000 1.550000 0.500000 0.000000 1.540000 0.600000 0.000000 1.600000 0.700000 0.000000 1.600000 0.800000 0.000000 1.700000 1.000000 0.000000 1.700000 0.900000 0.000000 1.580000 0.200000 0.000000 1.600000 0.000000 0.000000 1.600000 0.100000 0.000000 1.600000 0.400000 0.000000 1.600000 0.300000 0.000000 1.650000 0.500000 0.000000 1.660000 0.600000 0.000000 1.700000 0.700000 0.000000 1.720000 0.800000 0.000000 1.810000 0.900000 0.000000 1.800000 1.000000 0.000000 1.700000 0.100000 0.000000 1.700000 0.200000 0.000000 1.700000 0.300000 0.000000 1.700000 0.000000 0.000000 1.700000 0.400000 0.000000 1.750000 0.500000 0.000000 1.740000 0.600000 0.000000 1.800000 0.700000 0.000000 1.820000 0.800000 0.000000 1.900000 0.900000 0.000000 1.900000 1.000000 0.000000 1.790000 0.100000 0.000000 1.780000 0.200000 0.000000 1.800000 0.300000 0.000000 1.800000 0.000000 0.000000 1.850000 0.500000 0.000000 1.800000 0.400000 0.000000 1.840000 0.600000 0.000000 1.925000 0.500000 0.000000 1.900000 0.700000 0.000000 1.900000 0.800000 0.000000 1.990000 0.900000 0.000000 2.000000 1.000000 0.000000 1.890000 0.100000 0.000000 1.920000 0.200000 0.000000 1.900000 0.300000 0.000000 1.900000 0.000000 0.000000 1.940000 0.400000 0.000000 1.960000 0.600000 0.000000 2.000000 0.500000 0.000000 2.000000 0.700000 0.000000 2.020000 0.800000 0.000000 2.100000 0.900000 0.000000 2.100000 1.000000 0.000000 2.000000 0.100000 0.000000 2.000000 0.200000 0.000000 2.000000 0.300000 0.000000 2.000000 0.000000 0.000000 2.060000 0.400000 0.000000 2.100000 0.600000 0.000000 2.100000 0.500000 0.000000 2.130000 0.700000 0.000000 2.120000 0.800000 0.000000 2.200000 1.000000 0.000000 2.200000 0.800000 0.000000 2.200000 0.900000 0.000000 2.100000 0.100000 0.000000 2.100000 0.200000 0.000000 2.100000 0.300000 0.000000 2.100000 0.000000 0.000000 2.160000 0.400000 0.000000 2.200000 0.500000 0.000000 2.200000 0.600000 0.000000 2.270000 0.700000 0.000000 2.300000 1.000000 0.000000 2.300000 0.800000 0.000000 2.300000 0.900000 0.000000 2.190000 0.100000 0.000000 2.200000 0.200000 0.000000 2.230000 0.300000 0.000000 2.200000 0.000000 0.000000 2.240000 0.400000 0.000000 2.300000 0.500000 0.000000 2.300000 0.600000 0.000000 2.400000 0.600000 0.000000 2.400000 0.700000 0.000000 2.420000 0.800000 0.000000 2.400000 1.000000 0.000000 2.410000 0.900000 0.000000 2.300000 0.200000 0.000000 2.300000 0.100000 0.000000 2.315000 0.300000 0.000000 2.300000 0.000000 0.000000 2.320000 0.400000 0.000000 2.400000 0.500000 0.000000 2.480000 0.600000 0.000000 2.485000 0.700000 0.000000 2.500000 0.800000 0.000000 2.500000 0.900000 0.000000 2.500000 1.000000 0.000000 2.400000 0.200000 0.000000 2.400000 0.100000 0.000000 2.400000 0.300000 0.000000 2.400000 0.000000 0.000000 2.400000 0.400000 0.000000 2.500000 0.500000 0.000000 2.560000 0.600000 0.000000 2.570000 0.700000 0.000000 2.600000 0.800000 0.000000 2.590000 0.900000 0.000000 2.600000 1.000000 0.000000 2.480000 0.200000 0.000000 2.490000 0.100000 0.000000 2.500000 0.300000 0.000000 2.500000 0.000000 0.000000 2.540000 0.400000 0.000000 2.600000 0.500000 0.000000 2.640000 0.600000 0.000000 2.700000 0.700000 0.000000 2.700000 0.800000 0.000000 2.710000 0.900000 0.000000 2.700000 1.000000 0.000000 2.600000 0.200000 0.000000 2.600000 0.100000 0.000000 2.600000 0.300000 0.000000 2.600000 0.000000 0.000000 2.660000 0.400000 0.000000 2.700000 0.500000 0.000000 2.740000 0.600000 0.000000 2.800000 0.800000 0.000000 2.800000 0.700000 0.000000 2.800000 0.900000 0.000000 2.800000 1.000000 0.000000 2.920000 0.800000 0.000000 2.890000 0.900000 0.000000 2.685000 0.300000 0.000000 2.690000 0.100000 0.000000 2.680000 0.200000 0.000000 2.700000 0.000000 0.000000 2.800000 0.500000 0.000000 2.760000 0.400000 0.000000 2.860000 0.600000 0.000000 2.900000 0.700000 0.000000 2.900000 1.000000 0.000000 3.000000 1.000000 0.000000 3.030000 0.700000 0.000000 3.000000 0.800000 0.000000 3.010000 0.900000 0.000000 2.770000 0.300000 0.000000 2.790000 0.100000 0.000000 2.820000 0.200000 0.000000 2.800000 0.000000 0.000000 2.875000 0.500000 0.000000 2.840000 0.400000 0.000000 2.950000 0.500000 0.000000 2.940000 0.600000 0.000000 3.040000 0.600000 0.000000 3.100000 1.000000 0.000000 3.095000 0.650000 0.000000 3.097500 0.725000 0.000000 3.100000 0.800000 0.000000 3.100000 0.900000 0.000000 2.900000 0.300000 0.000000 2.900000 0.200000 0.000000 2.900000 0.100000 0.000000 2.900000 0.000000 0.000000 2.960000 0.400000 0.000000 3.025000 0.500000 0.000000 2.985000 0.300000 0.000000 3.100000 0.500000 0.000000 3.160000 0.600000 0.000000 3.200000 1.000000 0.000000
[...]
<PointData>
<DataArray type="Float32" Name="Velocity" NumberOfComponents="3" format="ascii">
6.40000010e+00 1.40129846e-45 0.00000000e+00 8.39999962e+00 1.40129846e-45 0.00000000e+00 9.60000038e+00 0.00000000e+00 0.00000000e+00 1.00000000e+01 1.40129846e-45 0.00000000e+00 9.60000038e+00 -1.40129846e-45 0.00000000e+00 8.39999962e+00 -2.80259693e-45 0.00000000e+00 6.40000010e+00 -2.80259693e-45 0.00000000e+00 3.59999990e+00 7.00649232e-45 0.00000000e+00 -6.00000002e-30 6.66666669e-30 0.00000000e+00 -6.00000002e-30 -6.66666669e-30 0.00000000e+00 3.59999990e+00 9.80908925e-45 0.00000000e+00 6.97499990e+00 1.70697859e-15 0.00000000e+00 5.09999990e+00 -2.05526785e-15 0.00000000e+00 8.88888931e+00 9.79400268e-16 0.00000000e+00 9.79591846e+00 -2.87728855e-15 0.00000000e+00 9.79591846e+00 -3.09328237e-15 0.00000000e+00 8.88888931e+00 -3.68380770e-15 0.00000000e+00 4.62222242e+00 3.18328831e-15 0.00000000e+00 6.97499990e+00 2.63636061e-15 0.00000000e+00 1.33333334e-30 1.30666673e-29 0.00000000e+00 1.33333334e-30 -1.30666673e-29 0.00000000e+00 2.48888874e+00 -2.02093294e-15 0.00000000e+00 7.82222223e+00 5.70256303e-16 0.00000000e+00 5.90399981e+00 -5.09706099e-16 0.00000000e+00 9.18367386e+00 -1.92484828e-15 0.00000000e+00 2.77500010e+00 -1.13028426e-15 0.00000000e+00 9.90929699e+00 -3.27564560e-15 0.00000000e+00 9.90929699e+00 -5.81735664e-15 0.00000000e+00 9.18367386e+00 -5.83630180e-15 0.00000000e+00 7.82222223e+00 -3.25227215e-15 0.00000000e+00 5.90400028e+00 -1.18883065e-15 0.00000000e+00 1.33333334e-30 1.27999997e-29 0.00000000e+00 1.33333334e-30 -1.27999997e-29 0.00000000e+00 2.77499986e+00 -1.74465430e-15 0.00000000e+00 8.16326523e+00 -6.49525066e-15 0.00000000e+00 4.62222242e+00 1.97492635e-15 0.00000000e+00 6.73469400e+00 -3.13578733e-15 0.00000000e+00 9.73010159e+00 -8.14457669e-15 0.00000000e+00 4.22399998e+00 -9.15975394e-16 0.00000000e+00 9.99314022e+00 -7.58037652e-15 0.00000000e+00 9.30153084e+00 -5.73889259e-15 0.00000000e+00 6.40000010e+00 2.49694910e-16 0.00000000e+00 8.16326523e+00 -3.88991961e-15 0.00000000e+00 1.33333334e-30 1.25333337e-29 0.00000000e+00 2.48888898e+00 -1.55974415e-15 0.00000000e+00 1.33333334e-30 -1.25333337e-29 0.00000000e+00 2.48888874e+00 1.19927075e-15 0.00000000e+00 9.60946655e+00 -4.35894632e-15 0.00000000e+00 8.75827694e+00 -5.56648327e-15 0.00000000e+00 7.93191576e+00 -6.22764203e-15 0.00000000e+00 4.89795923e+00 1.21448196e-17 0.00000000e+00 9.98163223e+00 -7.33479710e-15 0.00000000e+00 4.89795923e+00 1.06173208e-15 0.00000000e+00 7.15555573e+00 -1.75470541e-15 0.00000000e+00 9.76048756e+00 -9.13786428e-15 0.00000000e+00 8.75827694e+00 -2.40277031e-15 0.00000000e+00 1.33333334e-30 1.22666669e-29 0.00000000e+00 2.65306139e+00 -5.24019633e-16 0.00000000e+00 1.33333334e-30 -1.22666669e-29 0.00000000e+00 9.85255051e+00 -3.18489576e-15 0.00000000e+00 2.65306115e+00 2.24273509e-15 0.00000000e+00 8.95147419e+00 -6.12425658e-15 0.00000000e+00 6.89591837e+00 -4.12424747e-15 0.00000000e+00 9.93826485e+00 -1.05198366e-14 0.00000000e+00 9.96313763e+00 -2.14288496e-16 0.00000000e+00 5.68163252e+00 2.58505218e-16 0.00000000e+00 7.82222223e+00 4.27388804e-17 0.00000000e+00 9.23718834e+00 -6.13599773e-15 0.00000000e+00 1.33333334e-30 1.20000000e-29 0.00000000e+00 3.60000014e+00 -2.36671128e-15 0.00000000e+00 1.33333334e-30 -1.20000000e-29 0.00000000e+00 9.60000038e+00 -1.43766860e-15 0.00000000e+00 6.40000010e+00 -2.98738271e-15 0.00000000e+00 3.59999990e+00 2.86291604e-16 0.00000000e+00 8.39999962e+00 -5.34712714e-15 0.00000000e+00 9.60000038e+00 -1.64310278e-15 0.00000000e+00 1.00000000e+01 -6.63169464e-16 0.00000000e+00 6.40000010e+00 -2.36728853e-15 0.00000000e+00 8.39999962e+00 2.56705871e-15 0.00000000e+00 1.33333334e-30 1.17333332e-29 0.00000000e+00 3.60000014e+00 1.90665316e-15 0.00000000e+00 1.33333334e-30 -1.17333332e-29 0.00000000e+00 9.60000038e+00 -4.86431752e-15 0.00000000e+00 3.59999990e+00 -9.85032296e-16 0.00000000e+00 6.40000010e+00 -3.67691751e-15 0.00000000e+00 8.39999962e+00 -2.34803674e-15 0.00000000e+00 9.60000038e+00 -1.17448212e-15 0.00000000e+00 1.00000000e+01 -3.66689584e-15 0.00000000e+00 6.40000010e+00 -1.39746354e-15 0.00000000e+00 8.39999962e+00 1.44308283e-15 0.00000000e+00 3.60000014e+00 -3.58215697e-15 0.00000000e+00 1.33333334e-30 1.14666664e-29 0.00000000e+00 6.40000010e+00 4.84575002e-16 0.00000000e+00 1.33333334e-30 -1.14666664e-29 0.00000000e+00 3.59999990e+00 2.79202134e-15 0.00000000e+00 9.60000038e+00 -3.16305121e-15 0.00000000e+00 6.40000010e+00 -2.55205394e-15 0.00000000e+00 8.39999962e+00 -7.89265565e-16 0.00000000e+00 1.00000000e+01 -1.33905586e-15 0.00000000e+00 9.60000038e+00 -4.43393293e-17 0.00000000e+00 8.39999962e+00 -5.80756705e-16 0.00000000e+00 7.50000000e+00 1.89983878e-15 0.00000000e+00 3.60000014e+00 -2.06354294e-15 0.00000000e+00 1.33333334e-30 1.12000003e-29 0.00000000e+00 6.40000010e+00 2.41062570e-15 0.00000000e+00 1.33333334e-30 1.09333335e-29 0.00000000e+00 3.59999990e+00 1.29372064e-15 0.00000000e+00 6.40000010e+00 6.14945867e-16 0.00000000e+00 1.33333334e-30 -1.12000003e-29 0.00000000e+00 9.60000038e+00 1.04456781e-15 0.00000000e+00 1.00000000e+01 1.56871097e-16 0.00000000e+00 8.39999962e+00 -4.25213970e-15 0.00000000e+00 9.60000038e+00 -1.92598521e-15 0.00000000e+00 8.39999962e+00 1.48544634e-15 0.00000000e+00 3.60000014e+00 2.85548444e-15 0.00000000e+00 6.40000010e+00 2.48887905e-15 0.00000000e+00 1.33333334e-30 1.06666667e-29 0.00000000e+00 3.59999990e+00 9.79449184e-16 0.00000000e+00 6.40000010e+00 -2.77769230e-15 0.00000000e+00 1.33333334e-30 -1.09333335e-29 0.00000000e+00 1.00000000e+01 -1.92824531e-15 0.00000000e+00 9.60000038e+00 -2.02900792e-15 0.00000000e+00 8.39999962e+00 -3.46594434e-17 0.00000000e+00 9.60000038e+00 1.84447248e-15 0.00000000e+00 1.00000000e+01 -1.42283920e-16 0.00000000e+00 8.39999962e+00 3.79337056e-15 0.00000000e+00 6.40000010e+00 1.18727613e-15 0.00000000e+00 3.60000014e+00 1.28638960e-17 0.00000000e+00 1.33333334e-30 1.03999999e-29 0.00000000e+00 3.59999990e+00 2.27368355e-15 0.00000000e+00 6.40000010e+00 2.33606732e-15 0.00000000e+00 1.33333334e-30 -1.06666667e-29 0.00000000e+00 9.60000038e+00 2.37877112e-15 0.00000000e+00 8.39999962e+00 1.74871699e-15 0.00000000e+00 9.60000038e+00 2.43185510e-15 0.00000000e+00 1.00000000e+01 -3.67881206e-16 0.00000000e+00 8.39999962e+00 7.21043043e-16 0.00000000e+00 6.40000010e+00 -9.27255544e-16 0.00000000e+00 3.60000014e+00 1.91304866e-16 0.00000000e+00 1.33333334e-30 1.01333331e-29 0.00000000e+00 3.60000014e+00 -5.31513538e-17 0.00000000e+00 3.59999990e+00 1.86247129e-15 0.00000000e+00 6.40000010e+00 1.04175492e-15 0.00000000e+00 1.33333334e-30 -1.03999999e-29 0.00000000e+00 9.60000038e+00 1.26141576e-15 0.00000000e+00 1.00000000e+01 1.32525017e-15 0.00000000e+00 8.39999962e+00 -2.67283682e-15 0.00000000e+00 9.60000038e+00 1.17888892e-15 0.00000000e+00 8.39999962e+00 1.72777654e-15 0.00000000e+00 6.40000010e+00 3.25714174e-15 0.00000000e+00 1.33333334e-30 9.86666700e-30 0.00000000e+00 3.60000014e+00 -1.65830374e-15 0.00000000e+00 3.59999990e+00 -1.06247101e-15 0.00000000e+00 6.40000010e+00 2.19978607e-15 0.00000000e+00 1.33333334e-30 -1.01333331e-29 0.00000000e+00 9.60000038e+00 -2.11679661e-16 0.00000000e+00 1.00000000e+01 2.80809019e-15 0.00000000e+00 8.39999962e+00 1.35340523e-15 0.00000000e+00 9.60000038e+00 3.03931700e-16 0.00000000e+00 6.40000010e+00 3.05344514e-15 0.00000000e+00 8.39999962e+00 -5.59177800e-16 0.00000000e+00 6.40000010e+00 2.47078494e-15 0.00000000e+00 1.33333334e-30 9.60000018e-30 0.00000000e+00 3.60000014e+00 -9.96563697e-16 0.00000000e+00 3.59999990e+00 -4.03723855e-16 0.00000000e+00 6.40000010e+00 1.48934915e-16 0.00000000e+00 1.33333334e-30 -9.86666700e-30 0.00000000e+00 1.00000000e+01 2.29936538e-15 0.00000000e+00 9.60000038e+00 4.34424437e-15 0.00000000e+00 8.39999962e+00 2.57430465e-15 0.00000000e+00 9.60000038e+00 8.22858256e-16 0.00000000e+00 1.00000000e+01 3.01050163e-15 0.00000000e+00 8.39999962e+00 3.96088276e-15 0.00000000e+00 5.09999990e+00 2.65971564e-15 0.00000000e+00 7.50000000e+00 2.04311165e-15 0.00000000e+00 1.33333334e-30 9.33333336e-30 0.00000000e+00 3.60000014e+00 3.61666932e-15 0.00000000e+00 6.40000010e+00 1.98055202e-16 0.00000000e+00 3.59999990e+00 5.42262922e-16 0.00000000e+00 1.33333334e-30 -9.60000018e-30 0.00000000e+00 9.60000038e+00 1.69086464e-15 0.00000000e+00 8.39999962e+00 -3.22105412e-15 0.00000000e+00 1.00000000e+01 1.08541841e-15 0.00000000e+00 9.60000038e+00 6.55241712e-16 0.00000000e+00 8.39999962e+00 -3.89102293e-16 0.00000000e+00 6.40000010e+00 1.24419113e-15 0.00000000e+00 1.33333334e-30 9.06666654e-30 0.00000000e+00 3.60000014e+00 7.12177414e-16 0.00000000e+00 6.40000010e+00 3.29218477e-15 0.00000000e+00 1.33333334e-30 -9.33333336e-30 0.00000000e+00 3.59999990e+00 1.64920597e-15 0.00000000e+00 9.60000038e+00 7.55102979e-16 0.00000000e+00 8.39999962e+00 1.88777280e-15 0.00000000e+00 1.00000000e+01 -4.38001161e-16 0.00000000e+00 9.60000038e+00 -1.26266873e-15 0.00000000e+00 8.39999962e+00 -1.03401931e-16 0.00000000e+00 6.40000010e+00 -1.07721881e-15 0.00000000e+00 1.33333334e-30 8.79999973e-30 0.00000000e+00 3.60000014e+00 -1.21249516e-15 0.00000000e+00 6.40000010e+00 2.01779871e-15 0.00000000e+00 1.33333334e-30 -9.06666654e-30 0.00000000e+00 3.59999990e+00 2.28951841e-15 0.00000000e+00 9.60000038e+00 9.10432516e-16 0.00000000e+00 8.39999962e+00 -2.14633292e-16 0.00000000e+00 1.00000000e+01 -7.73745963e-16 0.00000000e+00 9.60000038e+00 1.06198492e-15 0.00000000e+00 8.39999962e+00 -1.79423628e-16 0.00000000e+00 6.40000010e+00 4.77311589e-16 0.00000000e+00 3.60000014e+00 1.73728173e-15 0.00000000e+00 1.33333334e-30 8.53333366e-30 0.00000000e+00 3.59999990e+00 -1.66456543e-15 0.00000000e+00 6.40000010e+00 -5.30761009e-15 0.00000000e+00 8.39999962e+00 -3.20496282e-15 0.00000000e+00 1.33333334e-30 -8.79999973e-30 0.00000000e+00 9.60000038e+00 -2.21032633e-15 0.00000000e+00 1.00000000e+01 -1.90612949e-15 0.00000000e+00 9.60000038e+00 -1.94509957e-15 0.00000000e+00 8.39999962e+00 -1.75975595e-15 0.00000000e+00 6.40000010e+00 1.09349391e-15 0.00000000e+00 3.60000014e+00 1.17397411e-15 0.00000000e+00 1.33333334e-30 8.26666684e-30 0.00000000e+00 3.59999990e+00 5.80233980e-16 0.00000000e+00 6.40000010e+00 -3.46793669e-15 0.00000000e+00 8.39999962e+00 -3.79687897e-15 0.00000000e+00 1.33333334e-30 -8.53333366e-30 0.00000000e+00 1.00000000e+01 -1.98547720e-15 0.00000000e+00 9.60000038e+00 -1.44737570e-15 0.00000000e+00 9.60000038e+00 -4.60997946e-16 0.00000000e+00 1.00000000e+01 -3.31931169e-16 0.00000000e+00 8.39999962e+00 2.51280556e-16 0.00000000e+00 6.40000010e+00 7.64888910e-16 0.00000000e+00 3.60000014e+00 2.36379409e-15 0.00000000e+00 1.33333334e-30 8.00000003e-30 0.00000000e+00 3.59999990e+00 8.43904484e-16 0.00000000e+00 6.40000010e+00 -3.65598817e-15 0.00000000e+00 8.39999962e+00 -5.34443612e-15 0.00000000e+00 1.33333334e-30 -8.26666684e-30 0.00000000e+00 9.60000038e+00 -4.47317125e-15 0.00000000e+00 9.60000038e+00 2.40495629e-15 0.00000000e+00 1.00000000e+01 -3.59602713e-15 0.00000000e+00 8.39999962e+00 3.24037113e-15 0.00000000e+00 6.40000010e+00 5.37800742e-15 0.00000000e+00 3.60000014e+00 1.39806610e-15 0.00000000e+00 1.33333334e-30 7.73333321e-30 0.00000000e+00 3.59999990e+00 -5.21675522e-16 0.00000000e+00 6.40000010e+00 -8.58453969e-16 0.00000000e+00 8.39999962e+00 -3.45691044e-15 0.00000000e+00 1.33333334e-30 -8.00000003e-30 0.00000000e+00 9.60000038e+00 -2.34797851e-15 0.00000000e+00 9.60000038e+00 -1.20595966e-15 0.00000000e+00 1.00000000e+01 -6.20224629e-16 0.00000000e+00 8.39999962e+00 -6.39458524e-17 0.00000000e+00 6.40000010e+00 2.11273183e-15 0.00000000e+00 1.33333334e-30 7.46666639e-30 0.00000000e+00 6.40000010e+00 -2.00051013e-15 0.00000000e+00 3.60000014e+00 4.35402358e-16 0.00000000e+00 3.59999990e+00 2.08839531e-15 0.00000000e+00 6.40000010e+00 -3.75955759e-16 0.00000000e+00 8.39999962e+00 -3.46116170e-15 0.00000000e+00 1.33333334e-30 -7.73333321e-30 0.00000000e+00 9.60000038e+00 -1.43062086e-15 0.00000000e+00 1.00000000e+01 1.58769941e-15 0.00000000e+00 9.60000038e+00 2.45225419e-15 0.00000000e+00 8.39999962e+00 -3.08123524e-15 0.00000000e+00 1.33333334e-30 7.20000032e-30 0.00000000e+00 6.40000010e+00 -4.68716439e-15 0.00000000e+00 3.60000014e+00 -1.93094692e-15 0.00000000e+00 3.59999990e+00 6.94017239e-16 0.00000000e+00 6.40000010e+00 -1.28481441e-15 0.00000000e+00 8.39999962e+00 -1.04690689e-15 0.00000000e+00 1.33333334e-30 -7.46666639e-30 0.00000000e+00 9.60000038e+00 -2.62790490e-15 0.00000000e+00 1.00000000e+01 -1.15482894e-15 0.00000000e+00 9.60000038e+00 -5.72815626e-18 0.00000000e+00 9.60000038e+00 -2.23637027e-15 0.00000000e+00 8.39999962e+00 -5.99998287e-15 0.00000000e+00 6.40000010e+00 -3.45030761e-15 0.00000000e+00 1.33333334e-30 6.93333351e-30 0.00000000e+00 3.60000014e+00 -4.36969474e-15 0.00000000e+00 6.40000010e+00 -1.76370016e-15 0.00000000e+00 3.59999990e+00 -1.05282204e-15 0.00000000e+00 8.39999962e+00 -3.68528709e-16 0.00000000e+00 1.33333334e-30 -7.20000032e-30 0.00000000e+00 9.60000038e+00 -6.65270635e-16 0.00000000e+00 1.00000000e+01 -1.82587375e-15 0.00000000e+00 9.60000038e+00 -4.27516333e-15 0.00000000e+00 8.39999962e+00 -5.22893598e-15 0.00000000e+00 6.40000010e+00 -2.93467651e-15 0.00000000e+00 3.60000014e+00 -7.57600403e-16 0.00000000e+00 1.33333334e-30 6.66666669e-30 0.00000000e+00 6.40000010e+00 -9.10939571e-16 0.00000000e+00 3.59999990e+00 -7.44853351e-16 0.00000000e+00 8.39999962e+00 -3.04185519e-15 0.00000000e+00 1.33333334e-30 -6.93333351e-30 0.00000000e+00 9.60000038e+00 -2.39348937e-15 0.00000000e+00 1.00000000e+01 -4.46985258e-15 0.00000000e+00 9.60000038e+00 -7.06983249e-15 0.00000000e+00 8.39999962e+00 -4.04902035e-15 0.00000000e+00 6.40000010e+00 -4.34349549e-16 0.00000000e+00 3.60000014e+00 -1.97949757e-15 0.00000000e+00 1.33333334e-30 6.39999987e-30 0.00000000e+00 6.40000010e+00 1.00418911e-15 0.00000000e+00 3.59999990e+00 1.91904229e-15 0.00000000e+00 8.39999962e+00 -4.28200608e-15 0.00000000e+00 1.33333334e-30 -6.66666669e-30 0.00000000e+00 9.60000038e+00 -8.68429338e-15 0.00000000e+00 1.00000000e+01 -6.75045406e-15 0.00000000e+00 9.60000038e+00 -6.13745716e-15 0.00000000e+00 8.39999962e+00 -5.61355310e-16 0.00000000e+00 6.40000010e+00 -1.20256147e-15 0.00000000e+00 3.60000014e+00 7.50253345e-16 0.00000000e+00 1.33333334e-30 6.13333343e-30 0.00000000e+00 6.40000010e+00 1.77424413e-15 0.00000000e+00 3.59999990e+00 1.33756111e-16 0.00000000e+00 8.39999962e+00 -6.63716679e-15 0.00000000e+00 1.33333334e-30 -6.39999987e-30 0.00000000e+00 9.60000038e+00 -8.51255068e-15 0.00000000e+00 1.00000000e+01 -1.02569617e-14 0.00000000e+00 9.60000038e+00 -2.72817200e-15 0.00000000e+00 6.40000010e+00 9.57689014e-16 0.00000000e+00 8.39999962e+00 -1.27663419e-15 0.00000000e+00 3.60000014e+00 1.70450730e-16 0.00000000e+00 1.33333334e-30 5.86666661e-30 0.00000000e+00 6.40000010e+00 -8.59274214e-16 0.00000000e+00 3.60000014e+00 7.63242383e-16 0.00000000e+00 8.39999962e+00 -5.80895873e-15 0.00000000e+00 3.59999990e+00 1.51281175e-15 0.00000000e+00 6.40000010e+00 3.81377829e-16 0.00000000e+00 1.33333334e-30 -6.13333343e-30 0.00000000e+00 1.00000000e+01 -4.66006441e-15 0.00000000e+00 9.60000038e+00 -9.16710725e-15 0.00000000e+00 9.60000038e+00 -2.09692345e-15 0.00000000e+00 8.39999962e+00 -5.43141296e-16 0.00000000e+00 1.33333334e-30 5.60000017e-30 0.00000000e+00 1.33333334e-30 5.33333335e-30 0.00000000e+00 8.39999962e+00 -3.34916997e-15 0.00000000e+00 6.40000010e+00 -9.32149369e-17 0.00000000e+00 3.60000014e+00 1.46106905e-15 0.00000000e+00 8.39999962e+00 -5.52231304e-15 0.00000000e+00 3.59999990e+00 -5.90958317e-16 0.00000000e+00 6.40000010e+00 -3.48116481e-15 0.00000000e+00 1.33333334e-30 -5.86666661e-30 0.00000000e+00 1.00000000e+01 -3.38459881e-15 0.00000000e+00 9.60000038e+00 -5.56004793e-15 0.00000000e+00 1.00000000e+01 -1.49058846e-15 0.00000000e+00 9.60000038e+00 -3.13564842e-15 0.00000000e+00 9.60000038e+00 -1.29003266e-15 0.00000000e+00 1.33333334e-30 5.06666653e-30 0.00000000e+00 9.10000038e+00 -9.49253479e-17 0.00000000e+00 7.97499990e+00 -1.81197860e-15 0.00000000e+00 6.40000010e+00 -4.02167193e-16 0.00000000e+00 3.60000014e+00 4.34878071e-16 0.00000000e+00 8.39999962e+00 -2.25792366e-15 0.00000000e+00 6.40000010e+00 -4.65823546e-16 0.00000000e+00 3.59999990e+00 6.78905642e-16 0.00000000e+00 1.33333334e-30 -5.60000017e-30 0.00000000e+00 9.60000038e+00 -9.98957518e-16 0.00000000e+00 1.00000000e+01 -4.04919548e-16 0.00000000e+00 8.39999962e+00 1.76929555e-15 0.00000000e+00 1.00000000e+01 6.00306914e-16 0.00000000e+00 9.60000038e+00 2.67409175e-16 0.00000000e+00 1.33333334e-30 4.80000009e-30 0.00000000e+00 8.39999962e+00 3.54021910e-15 0.00000000e+00 3.60000014e+00 -1.61165012e-16 0.00000000e+00 6.40000010e+00 7.08076292e-16 0.00000000e+00 6.40000010e+00 8.92069491e-17 0.00000000e+00 3.59999990e+00 1.45651688e-15 0.00000000e+00 1.33333334e-30 -5.33333335e-30 0.00000000e+00 8.39999962e+00 1.08152862e-15 0.00000000e+00 9.60000038e+00 2.20847260e-15 0.00000000e+00 1.00000000e+01 -4.16742169e-16 0.00000000e+00 9.60000038e+00 -1.09296303e-15 0.00000000e+00 3.60000014e+00 6.82242687e-17 0.00000000e+00 1.33333334e-30 4.53333327e-30 0.00000000e+00 8.39999962e+00 1.41706833e-15 0.00000000e+00 6.40000010e+00 2.16076157e-15 0.00000000e+00 6.40000010e+00 7.08408647e-16 0.00000000e+00 3.59999990e+00 3.39797378e-16 0.00000000e+00 1.33333334e-30 -5.06666653e-30 0.00000000e+00 8.39999962e+00 3.94132160e-16 0.00000000e+00 6.40000010e+00 1.50826466e-15 0.00000000e+00 9.60000038e+00 2.12107574e-15 0.00000000e+00 1.00000000e+01 8.35715727e-17 0.00000000e+00 9.60000038e+00 -1.84039211e-15 0.00000000e+00 8.39999962e+00 7.32238225e-16 0.00000000e+00 3.60000014e+00 -8.69108902e-16 0.00000000e+00 1.33333334e-30 4.26666683e-30 0.00000000e+00 6.40000010e+00 2.50040341e-16 0.00000000e+00 3.59999990e+00 -6.60713122e-16 0.00000000e+00 6.40000010e+00 7.69876504e-16 0.00000000e+00 1.33333334e-30 -4.80000009e-30 0.00000000e+00 8.39999962e+00 1.54876258e-15 0.00000000e+00 9.60000038e+00 2.69198971e-15 0.00000000e+00 1.00000000e+01 -6.90999896e-16 0.00000000e+00 9.60000038e+00 9.94856290e-16 0.00000000e+00 8.39999962e+00 7.90219059e-16 0.00000000e+00 1.33333334e-30 4.00000001e-30 0.00000000e+00 3.60000014e+00 8.95583817e-16 0.00000000e+00 6.40000010e+00 6.63118007e-16 0.00000000e+00 7.50000000e+00 1.40337488e-15 0.00000000e+00 3.59999990e+00 -1.05809688e-16 0.00000000e+00 5.09999990e+00 1.54053577e-15 0.00000000e+00 1.33333334e-30 -4.53333327e-30 0.00000000e+00 8.39999962e+00 2.04667449e-15 0.00000000e+00 9.60000038e+00 -3.23822919e-16 0.00000000e+00 1.00000000e+01 -8.79784429e-16 0.00000000e+00 1.00000000e+01 7.03183830e-16 0.00000000e+00 9.60000038e+00 1.94116849e-15 0.00000000e+00 1.33333334e-30 3.73333319e-30 0.00000000e+00 8.39999962e+00 2.26111210e-15 0.00000000e+00 3.60000014e+00 -8.24237769e-17 0.00000000e+00 6.40000010e+00 1.35836302e-15 0.00000000e+00 6.40000010e+00 3.04182322e-15 0.00000000e+00 1.33333334e-30 -4.26666683e-30 0.00000000e+00 3.59999990e+00 1.08687117e-15 0.00000000e+00 9.60000038e+00 1.09292587e-15 0.00000000e+00 8.39999962e+00 1.43414801e-16 0.00000000e+00 1.00000000e+01 4.84152640e-15 0.00000000e+00 9.60000038e+00 2.83825981e-15 0.00000000e+00 1.33333334e-30 3.46666675e-30 0.00000000e+00 8.39999962e+00 3.36217526e-16 0.00000000e+00 3.60000014e+00 1.31136662e-16 0.00000000e+00 6.40000010e+00 9.62426046e-16 0.00000000e+00 6.40000010e+00 4.42855453e-16 0.00000000e+00 3.59999990e+00 5.08022568e-16 0.00000000e+00 1.33333334e-30 -4.00000001e-30 0.00000000e+00 6.40000010e+00 -6.96133339e-16 0.00000000e+00 9.60000038e+00 3.27739684e-15 0.00000000e+00 8.39999962e+00 -2.91173796e-16 0.00000000e+00 1.00000000e+01 8.98679002e-15 0.00000000e+00 9.60000038e+00 4.34544843e-15 0.00000000e+00 1.33333334e-30 3.19999993e-30 0.00000000e+00 3.60000014e+00 -6.29209796e-16 0.00000000e+00 8.39999962e+00 1.46633209e-15 0.00000000e+00 6.40000010e+00 -4.11416979e-16 0.00000000e+00 3.59999990e+00 8.27878224e-17 0.00000000e+00 1.33333334e-30 -3.73333319e-30 0.00000000e+00 9.600000