<?xml version="1.0"?>
<VTKFile type="UnstructuredGrid"  byte_order="LittleEndian">
<UnstructuredGrid>
<Piece NumberOfPoints="676" NumberOfCells=" 1350">
<Points>
<DataArray type="Float32" NumberOfComponents="3" format="ascii">
0.000000 0.000000 0.000000 0.040000 0.000000 0.000000 0.080000 0.000000 0.000000 0.120000 0.000000 0.000000 0.160000 0.000000 0.000000 0.200000 0.000000 0.000000 0.240000 0.000000 0.000000 0.280000 0.000000 0.000000 0.320000 0.000000 0.000000 0.360000 0.000000 0.000000 0.400000 0.000000 0.000000 0.440000 0.000000 0.000000 0.480000 0.000000 0.000000 0.520000 0.000000 0.000000 0.560000 0.000000 0.000000 0.600000 0.000000 0.000000 0.640000 0.000000 0.000000 0.680000 0.000000 0.000000 0.720000 0.000000 0.000000 0.760000 0.000000 0.000000 0.800000 0.000000 0.000000 0.840000 0.000000 0.000000 0.880000 0.000000 0.000000 0.920000 0.000000 0.000000 0.960000 0.000000 0.000000 1.000000 0.000000 0.000000 0.000000 0.040000 0.000000 0.040000 0.040000 0.000000 0.080000 0.040000 0.000000 0.120000 0.040000 0.000000 0.160000 0.040000 0.000000 0.200000 0.040000 0.000000 0.240000 0.040000 0.000000 0.280000 0.040000 0.000000 0.320000 0.040000 0.000000 0.360000 0.040000 0.000000 0.400000 0.040000 0.000000 0.440000 0.040000 0.000000 0.480000 0.040000 0.000000 0.520000 0.040000 0.000000 0.560000 0.040000 0.000000 0.600000 0.040000 0.000000 0.640000 0.040000 0.000000 0.680000 0.040000 0.000000 0.720000 0.040000 0.000000 0.760000 0.040000 0.000000 0.800000 0.040000 0.000000 0.840000 0.040000 0.000000 0.880000 0.040000 0.000000 0.920000 0.040000 0.000000 0.960000 0.040000 0.000000 1.000000 0.040000 0.000000 0.000000 0.080000 0.000000 0.040000 0.080000 0.000000 0.080000 0.080000 0.000000 0.120000 0.080000 0.000000 0.160000 0.080000 0.000000 0.200000 0.080000 0.000000 0.240000 0.080000 0.000000 0.280000 0.080000 0.000000 0.320000 0.080000 0.000000 0.360000 0.080000 0.000000 0.400000 0.080000 0.000000 0.440000 0.080000 0.000000 0.480000 0.080000 0.000000 0.520000 0.080000 0.000000 0.560000 0.080000 0.000000 0.600000 0.080000 0.000000 0.640000 0.080000 0.000000 0.680000 0.080000 0.000000 0.720000 0.080000 0.000000 0.760000 0.080000 0.000000 0.800000 0.080000 0.000000 0.840000 0.080000 0.000000 0.880000 0.080000 0.000000 0.920000 0.080000 0.000000 0.960000 0.080000 0.000000 1.000000 0.080000 0.000000 0.000000 0.120000 0.000000 0.040000 0.120000 0.000000 0.080000 0.120000 0.000000 0.120000 0.120000 0.000000 0.160000 0.120000 0.000000 0.200000 0.120000 0.000000 0.240000 0.120000 0.000000 0.280000 0.120000 0.000000 0.320000 0.120000 0.000000 0.360000 0.120000 0.000000 0.400000 0.120000 0.000000 0.440000 0.120000 0.000000 0.480000 0.120000 0.000000 0.520000 0.120000 0.000000 0.560000 0.120000 0.000000 0.600000 0.120000 0.000000 0.640000 0.120000 0.000000 0.680000 0.120000 0.000000 0.720000 0.120000 0.000000 0.760000 0.120000 0.000000 0.800000 0.120000 0.000000 0.840000 0.120000 0.000000 0.880000 0.120000 0.000000 0.920000 0.120000 0.000000 0.960000 0.120000 0.000000 1.000000 0.120000 0.000000 0.000000 0.160000 0.000000 0.040000 0.160000 0.000000 0.080000 0.160000 0.000000 0.120000 0.160000 0.000000 0.160000 0.160000 0.000000 0.200000 0.160000 0.000000 0.240000 0.160000 0.000000 0.280000 0.160000 0.000000 0.320000 0.160000 0.000000 0.360000 0.160000 0.000000 0.400000 0.160000 0.000000 0.440000 0.160000 0.000000 0.480000 0.160000 0.000000 0.520000 0.160000 0.000000 0.560000 0.160000 0.000000 0.600000 0.160000 0.000000 0.640000 0.160000 0.000000 0.680000 0.160000 0.000000 0.720000 0.160000 0.000000 0.760000 0.160000 0.000000 0.800000 0.160000 0.000000 0.840000 0.160000 0.000000 0.880000 0.160000 0.000000 0.920000 0.160000 0.000000 0.960000 0.160000 0.000000 1.000000 0.160000 0.000000 0.000000 0.200000 0.000000 0.040000 0.200000 0.000000 0.080000 0.200000 0.000000 0.120000 0.200000 0.000000 0.160000 0.200000 0.000000 0.200000 0.200000 0.000000 0.240000 0.200000 0.000000 0.280000 0.200000 0.000000 0.320000 0.200000 0.000000 0.360000 0.200000 0.000000 0.400000 0.200000 0.000000 0.440000 0.200000 0.000000 0.480000 0.200000 0.000000 0.520000 0.200000 0.000000 0.560000 0.200000 0.000000 0.600000 0.200000 0.000000 0.640000 0.200000 0.000000 0.680000 0.200000 0.000000 0.720000 0.200000 0.000000 0.760000 0.200000 0.000000 0.800000 0.200000 0.000000 0.840000 0.200000 0.000000 0.880000 0.200000 0.000000 0.920000 0.200000 0.000000 0.960000 0.200000 0.000000 1.000000 0.200000 0.000000 0.000000 0.240000 0.000000 0.040000 0.240000 0.000000 0.080000 0.240000 0.000000 0.120000 0.240000 0.000000 0.160000 0.240000 0.000000 0.200000 0.240000 0.000000 0.240000 0.240000 0.000000 0.280000 0.240000 0.000000 0.320000 0.240000 0.000000 0.360000 0.240000 0.000000 0.400000 0.240000 0.000000 0.440000 0.240000 0.000000 0.480000 0.240000 0.000000 0.520000 0.240000 0.000000 0.560000 0.240000 0.000000 0.600000 0.240000 0.000000 0.640000 0.240000 0.000000 0.680000 0.240000 0.000000 0.720000 0.240000 0.000000 0.760000 0.240000 0.000000 0.800000 0.240000 0.000000 0.840000 0.240000 0.000000 0.880000 0.240000 0.000000 0.920000 0.240000 0.000000 0.960000 0.240000 0.000000 1.000000 0.240000 0.000000 0.000000 0.280000 0.000000 0.040000 0.280000 0.000000 0.080000 0.280000 0.000000 0.120000 0.280000 0.000000 0.160000 0.280000 0.000000 0.200000 0.280000 0.000000 0.240000 0.280000 0.000000 0.280000 0.280000 0.000000 0.320000 0.280000 0.000000 0.360000 0.280000 0.000000 0.400000 0.280000 0.000000 0.440000 0.280000 0.000000 0.480000 0.280000 0.000000 0.520000 0.280000 0.000000 0.560000 0.280000 0.000000 0.600000 0.280000 0.000000 0.640000 0.280000 0.000000 0.680000 0.280000 0.000000 0.720000 0.280000 0.000000 0.760000 0.280000 0.000000 0.800000 0.280000 0.000000 0.840000 0.280000 0.000000 0.880000 0.280000 0.000000 0.920000 0.280000 0.000000 0.960000 0.280000 0.000000 1.000000 0.280000 0.000000 0.000000 0.320000 0.000000 0.040000 0.320000 0.000000 0.080000 0.320000 0.000000 0.120000 0.320000 0.000000 0.160000 0.320000 0.000000 0.200000 0.320000 0.000000 0.240000 0.320000 0.000000 0.280000 0.320000 0.000000 0.320000 0.320000 0.000000 0.360000 0.320000 0.000000 0.400000 0.320000 0.000000 0.440000 0.320000 0.000000 0.480000 0.320000 0.000000 0.520000 0.320000 0.000000 0.560000 0.320000 0.000000 0.600000 0.320000 0.000000 0.640000 0.320000 0.000000 0.680000 0.320000 0.000000 0.720000 0.320000 0.000000 0.760000 0.320000 0.000000 0.800000 0.320000 0.000000 0.840000 0.320000 0.000000 0.880000 0.320000 0.000000 0.920000 0.320000 0.000000 0.960000 0.320000 0.000000 1.000000 0.320000 0.000000 0.000000 0.360000 0.000000 0.040000 0.360000 0.000000 0.080000 0.360000 0.000000 0.120000 0.360000 0.000000 0.160000 0.360000 0.000000 0.200000 0.360000 0.000000 0.240000 0.360000 0.000000 0.280000 0.360000 0.000000 0.320000 0.360000 0.000000 0.360000 0.360000 0.000000 0.400000 0.360000 0.000000 0.440000 0.360000 0.000000 0.480000 0.360000 0.000000 0.520000 0.360000 0.000000 0.560000 0.360000 0.000000 0.600000 0.360000 0.000000 0.640000 0.360000 0.000000 0.680000 0.360000 0.000000 0.720000 0.360000 0.000000 0.760000 0.360000 0.000000 0.800000 0.360000 0.000000 0.840000 0.360000 0.000000 0.880000 0.360000 0.000000 0.920000 0.360000 0.000000 0.960000 0.360000 0.000000 1.000000 0.360000 0.000000 0.000000 0.400000 0.000000 0.040000 0.400000 0.000000 0.080000 0.400000 0.000000 0.120000 0.400000 0.000000 0.160000 0.400000 0.000000 0.200000 0.400000 0.000000 0.240000 0.400000 0.000000 0.280000 0.400000 0.000000 0.320000 0.400000 0.000000 0.360000 0.400000 0.000000 0.400000 0.400000 0.000000 0.440000 0.400000 0.000000 0.480000 0.400000 0.000000 0.520000 0.400000 0.000000 0.560000 0.400000 0.000000 0.600000 0.400000 0.000000 0.640000 0.400000 0.000000 0.680000 0.400000 0.000000 0.720000 0.400000 0.000000 0.760000 0.400000 0.000000 0.800000 0.400000 0.000000 0.840000 0.400000 0.000000 0.880000 0.400000 0.000000 0.920000 0.400000 0.000000 0.960000 0.400000 0.000000 1.000000 0.400000 0.000000 0.000000 0.440000 0.000000 0.040000 0.440000 0.000000 0.080000 0.440000 0.000000 0.120000 0.440000 0.000000 0.160000 0.440000 0.000000 0.200000 0.440000 0.000000 0.240000 0.440000 0.000000 0.280000 0.440000 0.000000 0.320000 0.440000 0.000000 0.360000 0.440000 0.000000 0.400000 0.440000 0.000000 0.440000 0.440000 0.000000 0.480000 0.440000 0.000000 0.520000 0.440000 0.000000 0.560000 0.440000 0.000000 0.600000 0.440000 0.000000 0.640000 0.440000 0.000000 0.680000 0.440000 0.000000 0.720000 0.440000 0.000000 0.760000 0.440000 0.000000 0.800000 0.440000 0.000000 0.840000 0.440000 0.000000 0.880000 0.440000 0.000000 0.920000 0.440000 0.000000 0.960000 0.440000 0.000000 1.000000 0.440000 0.000000 0.000000 0.480000 0.000000 0.040000 0.480000 0.000000 0.080000 0.480000 0.000000 0.120000 0.480000 0.000000 0.160000 0.480000 0.000000 0.200000 0.480000 0.000000 0.240000 0.480000 0.000000 0.280000 0.480000 0.000000 0.320000 0.480000 0.000000 0.360000 0.480000 0.000000 0.400000 0.480000 0.000000 0.440000 0.480000 0.000000 0.480000 0.480000 0.000000 0.520000 0.480000 0.000000 0.560000 0.480000 0.000000 0.600000 0.480000 0.000000 0.640000 0.480000 0.000000 0.680000 0.480000 0.000000 0.720000 0.480000 0.000000 0.760000 0.480000 0.000000 0.800000 0.480000 0.000000 0.840000 0.480000 0.000000 0.880000 0.480000 0.000000 0.920000 0.480000 0.000000 0.960000 0.480000 0.000000 1.000000 0.480000 0.000000 0.000000 0.520000 0.000000 0.040000 0.520000 0.000000 0.080000 0.520000 0.000000 0.120000 0.520000 0.000000 0.160000 0.520000 0.000000 0.200000 0.520000 0.000000 0.240000 0.520000 0.000000 0.280000 0.520000 0.000000 0.320000 0.520000 0.000000 0.360000 0.520000 0.000000 0.400000 0.520000 0.000000 0.440000 0.520000 0.000000 0.480000 0.520000 0.000000 0.520000 0.520000 0.000000 0.560000 0.520000 0.000000 0.600000 0.520000 0.000000 0.640000 0.520000 0.000000 0.680000 0.520000 0.000000 0.720000 0.520000 0.000000 0.760000 0.520000 0.000000 0.800000 0.520000 0.000000 0.840000 0.520000 0.000000 0.880000 0.520000 0.000000 0.920000 0.520000 0.000000
[...]
<PointData>
<DataArray type="Float32" Name="Laplacian" NumberOfComponents="1" format="ascii">
-0.00000000e+00 -1.19319775e-33 -1.96020938e-33 -2.53976777e-33 -3.00114544e-33 -3.37544268e-33 -3.68034975e-33 -3.92721275e-33 -4.12378847e-33 -4.27554222e-33 -4.38633697e-33 -4.45882272e-33 -4.49466391e-33 -4.49466391e-33 -4.45882272e-33 -4.38633697e-33 -4.27554222e-33 -4.12378847e-33 -3.92721275e-33 -3.68034975e-33 -3.37544268e-33 -3.00114544e-33 -2.53976777e-33 -1.96020938e-33 -1.19319775e-33 -0.00000000e+00 -1.19319775e-33 -3.02711711e-03 -5.20836981e-03 -6.90435246e-03 -8.26731045e-03 -9.37764626e-03 -1.02841584e-02 -1.10190790e-02 -1.16047878e-02 -1.20571973e-02 -1.23876212e-02 -1.26038464e-02 -1.27107743e-02 -1.27107743e-02 -1.26038464e-02 -1.23876212e-02 -1.20571973e-02 -1.16047878e-02 -1.10190790e-02 -1.02841584e-02 -9.37764626e-03 -8.26731045e-03 -6.90435246e-03 -5.20836981e-03 -3.02711711e-03 -1.19319775e-33 -1.96020938e-33 -5.20836981e-03 -9.27538518e-03 -1.25316093e-02 -1.51825128e-02 -1.73565485e-02 -1.91383455e-02 -2.05863323e-02 -2.17421278e-02 -2.26358064e-02 -2.32889652e-02 -2.37165727e-02 -2.39280853e-02 -2.39280853e-02 -2.37165727e-02 -2.32889652e-02 -2.26358064e-02 -2.17421278e-02 -2.05863323e-02 -1.91383455e-02 -1.73565485e-02 -1.51825128e-02 -1.25316093e-02 -9.27538518e-03 -5.20836981e-03 -1.96020938e-33 -2.53976777e-33 -6.90435246e-03 -1.25316093e-02 -1.71520468e-02 -2.09677014e-02 -2.41235308e-02 -2.67236512e-02 -2.88439058e-02 -3.05402018e-02 -3.18538509e-02 -3.28149572e-02 -3.34445909e-02 -3.37561518e-02 -3.37561518e-02 -3.34445909e-02 -3.28149572e-02 -3.18538509e-02 -3.05402018e-02 -2.88439058e-02 -2.67236512e-02 -2.41235308e-02 -2.09677014e-02 -1.71520468e-02 -1.25316093e-02 -6.90435246e-03 -2.53976777e-33 -3.00114544e-33 -8.26731045e-03 -1.51825128e-02 -2.09677014e-02 -2.58060433e-02 -2.98416317e-02 -3.31855826e-02 -3.59230563e-02 -3.81190926e-02 -3.98229510e-02 -4.10711505e-02 -4.18895483e-02 -4.22947071e-02 -4.22947071e-02 -4.18895483e-02 -4.10711505e-02 -3.98229510e-02 -3.81190926e-02 -3.59230563e-02 -3.31855826e-02 -2.98416317e-02 -2.58060433e-02 -2.09677014e-02 -1.51825128e-02 -8.26731045e-03 -3.00114544e-33 -3.37544268e-33 -9.37764626e-03 -1.73565485e-02 -2.41235308e-02 -2.98416317e-02 -3.46470848e-02 -3.86506878e-02 -4.19410467e-02 -4.45880629e-02 -4.66459543e-02 -4.81556170e-02 -4.91463505e-02 -4.96370755e-02 -4.96370755e-02 -4.91463505e-02 -4.81556170e-02 -4.66459543e-02 -4.45880629e-02 -4.19410467e-02 -3.86506878e-02 -3.46470848e-02 -2.98416317e-02 -2.41235308e-02 -1.73565485e-02 -9.37764626e-03 -3.37544268e-33 -3.68034975e-33 -1.02841584e-02 -1.91383455e-02 -2.67236512e-02 -3.31855826e-02 -3.86506878e-02 -4.32259329e-02 -4.69997823e-02 -5.00439554e-02 -5.24152741e-02 -5.41572869e-02 -5.53015620e-02 -5.58686405e-02 -5.58686405e-02 -5.53015620e-02 -5.41572869e-02 -5.24152741e-02 -5.00439554e-02 -4.69997823e-02 -4.32259329e-02 -3.86506878e-02 -3.31855826e-02 -2.67236512e-02 -1.91383455e-02 -1.02841584e-02 -3.68034975e-33 -3.92721275e-33 -1.10190790e-02 -2.05863323e-02 -2.88439058e-02 -3.59230563e-02 -4.19410467e-02 -4.69997823e-02 -5.11857197e-02 -5.45704998e-02 -5.72119132e-02 -5.91548607e-02 -6.04322404e-02 -6.10655993e-02 -6.10655993e-02 -6.04322404e-02 -5.91548607e-02 -5.72119132e-02 -5.45704998e-02 -5.11857197e-02 -4.69997823e-02 -4.19410467e-02 -3.59230563e-02 -2.88439058e-02 -2.05863323e-02 -1.10190790e-02 -3.92721275e-33 -4.12378847e-33 -1.16047878e-02 -2.17421278e-02 -3.05402018e-02 -3.81190926e-02 -4.45880629e-02 -5.00439554e-02 -5.45704998e-02 -5.82382753e-02 -6.11050166e-02 -6.32161275e-02 -6.46051317e-02 -6.52941540e-02 -6.52941540e-02 -6.46051317e-02 -6.32161275e-02 -6.11050166e-02 -5.82382753e-02 -5.45704998e-02 -5.00439554e-02 -4.45880629e-02 -3.81190926e-02 -3.05402018e-02 -2.17421278e-02 -1.16047878e-02 -4.12378847e-33 -4.27554222e-33 -1.20571973e-02 -2.26358064e-02 -3.18538509e-02 -3.98229510e-02 -4.66459543e-02 -5.24152741e-02 -5.72119132e-02 -6.11050166e-02 -6.41517863e-02 -6.63975850e-02 -6.78761676e-02 -6.86098933e-02 -6.86098933e-02 -6.78761676e-02 -6.63975850e-02 -6.41517863e-02 -6.11050166e-02 -5.72119132e-02 -5.24152741e-02 -4.66459543e-02 -3.98229510e-02 -3.18538509e-02 -2.26358064e-02 -1.20571973e-02 -4.27554222e-33 -4.38633697e-33 -1.23876212e-02 -2.32889652e-02 -3.28149572e-02 -4.10711505e-02 -4.81556170e-02 -5.41572869e-02 -5.91548607e-02 -6.32161275e-02 -6.63975850e-02 -6.87443614e-02 -7.02901930e-02 -7.10575134e-02 -7.10575134e-02 -7.02901930e-02 -6.87443614e-02 -6.63975850e-02 -6.32161275e-02 -5.91548607e-02 -5.41572869e-02 -4.81556170e-02 -4.10711505e-02 -3.28149572e-02 -2.32889652e-02 -1.23876212e-02 -4.38633697e-33 -4.45882272e-33 -1.26038464e-02 -2.37165727e-02 -3.34445909e-02 -4.18895483e-02 -4.91463505e-02 -5.53015620e-02 -6.04322404e-02 -6.46051317e-02 -6.78761676e-02 -7.02901930e-02 -7.18808547e-02 -7.26705864e-02 -7.26705864e-02 -7.18808547e-02 -7.02901930e-02 -6.78761676e-02 -6.46051317e-02 -6.04322404e-02 -5.53015620e-02 -4.91463505e-02 -4.18895483e-02 -3.34445909e-02 -2.37165727e-02 -1.26038464e-02 -4.45882272e-33 -4.49466391e-33 -1.27107743e-02 -2.39280853e-02 -3.37561518e-02 -4.22947071e-02 -4.96370755e-02 -5.58686405e-02 -6.10655993e-02 -6.52941540e-02 -6.86098933e-02 -7.10575134e-02 -7.26705864e-02 -7.34715164e-02 -7.34715164e-02 -7.26705864e-02 -7.10575134e-02 -6.86098933e-02 -6.52941540e-02 -6.10655993e-02 -5.58686405e-02 -4.96370755e-02 -4.22947071e-02 -3.37561518e-02 -2.39280853e-02 -1.27107743e-02 -4.49466391e-33 -4.49466391e-33 -1.27107743e-02 -2.39280853e-02 -3.37561518e-02 -4.22947071e-02 -4.96370755e-02 -5.58686405e-02 -6.10655993e-02 -6.52941540e-02 -6.86098933e-02 -7.10575134e-02 -7.26705864e-02 -7.34715164e-02 -7.34715164e-02 -7.26705864e-02 -7.10575134e-02 -6.86098933e-02 -6.52941540e-02 -6.10655993e-02 -5.58686405e-02 -4.96370755e-02 -4.22947071e-02 -3.37561518e-02 -2.39280853e-02 -1.27107743e-02 -4.49466391e-33 -4.45882272e-33 -1.26038464e-02 -2.37165727e-02 -3.34445909e-02 -4.18895483e-02 -4.91463505e-02 -5.53015620e-02 -6.04322404e-02 -6.46051317e-02 -6.78761676e-02 -7.02901930e-02 -7.18808547e-02 -7.26705864e-02 -7.26705864e-02 -7.18808547e-02 -7.02901930e-02 -6.78761676e-02 -6.46051317e-02 -6.04322404e-02 -5.53015620e-02 -4.91463505e-02 -4.18895483e-02 -3.34445909e-02 -2.37165727e-02 -1.26038464e-02 -4.45882272e-33 -4.38633697e-33 -1.23876212e-02 -2.32889652e-02 -3.28149572e-02 -4.10711505e-02 -4.81556170e-02 -5.41572869e-02 -5.91548607e-02 -6.32161275e-02 -6.63975850e-02 -6.87443614e-02 -7.02901930e-02 -7.10575134e-02 -7.10575134e-02 -7.02901930e-02 -6.87443614e-02 -6.63975850e-02 -6.32161275e-02 -5.91548607e-02 -5.41572869e-02 -4.81556170e-02 -4.10711505e-02 -3.28149572e-02 -2.32889652e-02 -1.23876212e-02 -4.38633697e-33 -4.27554222e-33 -1.20571973e-02 -2.26358064e-02 -3.18538509e-02 -3.98229510e-02 -4.66459543e-02 -5.24152741e-02 -5.72119132e-02 -6.11050166e-02 -6.41517863e-02 -6.63975850e-02 -6.78761676e-02 -6.86098933e-02 -6.86098933e-02 -6.78761676e-02 -6.63975850e-02 -6.41517863e-02 -6.11050166e-02 -5.72119132e-02 -5.24152741e-02 -4.66459543e-02 -3.98229510e-02 -3.18538509e-02 -2.26358064e-02 -1.20571973e-02 -4.27554222e-33 -4.12378847e-33 -1.16047878e-02 -2.17421278e-02 -3.05402018e-02 -3.81190926e-02 -4.45880629e-02 -5.00439554e-02 -5.45704998e-02 -5.82382753e-02 -6.11050166e-02 -6.32161275e-02 -6.46051317e-02 -6.52941540e-02 -6.52941540e-02 -6.46051317e-02 -6.32161275e-02 -6.11050166e-02 -5.82382753e-02 -5.45704998e-02 -5.00439554e-02 -4.45880629e-02 -3.81190926e-02 -3.05402018e-02 -2.17421278e-02 -1.16047878e-02 -4.12378847e-33 -3.92721275e-33 -1.10190790e-02 -2.05863323e-02 -2.88439058e-02 -3.59230563e-02 -4.19410467e-02 -4.69997823e-02 -5.11857197e-02 -5.45704998e-02 -5.72119132e-02 -5.91548607e-02 -6.04322404e-02 -6.10655993e-02 -6.10655993e-02 -6.04322404e-02 -5.91548607e-02 -5.72119132e-02 -5.45704998e-02 -5.11857197e-02 -4.69997823e-02 -4.19410467e-02 -3.59230563e-02 -2.88439058e-02 -2.05863323e-02 -1.10190790e-02 -3.92721275e-33 -3.68034975e-33 -1.02841584e-02 -1.91383455e-02 -2.67236512e-02 -3.31855826e-02 -3.86506878e-02 -4.32259329e-02 -4.69997823e-02 -5.00439554e-02 -5.24152741e-02 -5.41572869e-02 -5.53015620e-02 -5.58686405e-02 -5.58686405e-02 -5.53015620e-02 -5.41572869e-02 -5.24152741e-02 -5.00439554e-02 -4.69997823e-02 -4.32259329e-02 -3.86506878e-02 -3.31855826e-02 -2.67236512e-02 -1.91383455e-02 -1.02841584e-02 -3.68034975e-33 -3.37544268e-33 -9.37764626e-03 -1.73565485e-02 -2.41235308e-02 -2.98416317e-02 -3.46470848e-02 -3.86506878e-02 -4.19410467e-02 -4.45880629e-02 -4.66459543e-02 -4.81556170e-02 -4.91463505e-02 -4.96370755e-02 -4.96370755e-02 -4.91463505e-02 -4.81556170e-02 -4.66459543e-02 -4.45880629e-02 -4.19410467e-02 -3.86506878e-02 -3.46470848e-02 -2.98416317e-02 -2.41235308e-02 -1.73565485e-02 -9.37764626e-03 -3.37544268e-33 -3.00114544e-33 -8.26731045e-03 -1.51825128e-02 -2.09677014e-02 -2.58060433e-02 -2.98416317e-02 -3.31855826e-02 -3.59230563e-02 -3.81190926e-02 -3.98229510e-02 -4.10711505e-02 -4.18895483e-02 -4.22947071e-02 -4.22947071e-02 -4.18895483e-02 -4.10711505e-02 -3.98229510e-02 -3.81190926e-02 -3.59230563e-02 -3.31855826e-02 -2.98416317e-02 -2.58060433e-02 -2.09677014e-02 -1.51825128e-02 -8.26731045e-03 -3.00114544e-33 -2.53976777e-33 -6.90435246e-03 -1.25316093e-02 -1.71520468e-02 -2.09677014e-02 -2.41235308e-02 -2.67236512e-02 -2.88439058e-02 -3.05402018e-02 -3.18538509e-02 -3.28149572e-02 -3.34445909e-02 -3.37561518e-02 -3.37561518e-02 -3.34445909e-02 -3.28149572e-02 -3.18538509e-02 -3.05402018e-02 -2.88439058e-02 -2.67236512e-02 -2.41235308e-02 -2.09677014e-02 -1.71520468e-02 -1.25316093e-02 -6.90435246e-03 -2.53976777e-33 -1.96020938e-33 -5.20836981e-03 -9.27538518e-03 -1.25316093e-02 -1.51825128e-02 -1.73565485e-02 -1.91383455e-02 -2.05863323e-02 -2.17421278e-02 -2.26358064e-02 -2.32889652e-02 -2.37165727e-02 -2.39280853e-02 -2.39280853e-02 -2.37165727e-02 -2.32889652e-02 -2.26358064e-02 -2.17421278e-02 -2.05863323e-02 -1.91383455e-02 -1.73565485e-02 -1.51825128e-02 -1.25316093e-02 -9.27538518e-03 -5.20836981e-03 -1.96020938e-33 -1.19319775e-33 -3.02711711e-03 -5.20836981e-03 -6.90435246e-03 -8.26731045e-03 -9.37764626e-03 -1.02841584e-02 -1.10190790e-02 -1.16047878e-02 -1.20571973e-02 -1.23876212e-02 -1.26038464e-02 -1.27107743e-02 -1.27107743e-02 -1.26038464e-02 -1.23876212e-02 -1.20571973e-02 -1.16047878e-02 -1.10190790e-02 -1.02841584e-02 -9.37764626e-03 -8.26731045e-03 -6.90435246e-03 -5.20836981e-03 -3.02711711e-03 -1.19319775e-33 0.00000000e+00 -1.19319775e-33 -1.96020938e-33 -2.53976777e-33 -3.00114544e-33 -3.37544268e-33 -3.68034975e-33 -3.92721275e-33 -4.12378847e-33 -4.27554222e-33 -4.38633697e-33 -4.45882272e-33 -4.49466391e-33 -4.49466391e-33 -4.45882272e-33 -4.38633697e-33 -4.27554222e-33 -4.12378847e-33 -3.92721275e-33 -3.68034975e-33 -3.37544268e-33 -3.00114544e-33 -2.53976777e-33 -1.96020938e-33 -1.19319775e-33 -0.00000000e+00 
</DataArray>
</PointData>
</Piece>
</UnstructuredGrid>
</VTKFile>
